 Output coordinates in angstroms (scale by  1.889725989 to convert to a.u.)

  No.       Tag          Charge          X              Y              Z
 ---- ---------------- ---------- -------------- -------------- --------------
    1 O                    8.0000     0.00000040    -0.00000060    -0.00000716
    2 H                    1.0000     0.96928937    -0.15553414     0.04424473
    3 H                    1.0000    -0.34721883     0.91486873    -0.09013876
    4 H                    1.0000    -0.62207372    -0.75932981     0.04595131

         Total DFT energy =      -75.746589862851

                    DFT Final Alpha Molecular Orbital Analysis
                    ------------------------------------------

 Vector    1  Occ=1.000000D+00  E=-1.978337D+01

 Vector    2  Occ=1.000000D+00  E=-1.890983D+00

 Vector    3  Occ=1.000000D+00  E=-1.388403D+00

 Vector    4  Occ=1.000000D+00  E=-1.388402D+00

 Vector    5  Occ=1.000000D+00  E=-1.256385D+00

 Vector    6  Occ=0.000000D+00  E=-6.478982D-01

 Vector    7  Occ=0.000000D+00  E=-5.497164D-01

 Vector    8  Occ=0.000000D+00  E=-5.497161D-01

 Vector    9  Occ=0.000000D+00  E=-3.015477D-01

 Vector   10  Occ=0.000000D+00  E=-2.874808D-01

 Vector   11  Occ=0.000000D+00  E=-2.874803D-01

 Vector   12  Occ=0.000000D+00  E=-2.671236D-01

 Vector   13  Occ=0.000000D+00  E=-8.247970D-02

 Vector   14  Occ=0.000000D+00  E=-8.247954D-02

 Vector   15  Occ=0.000000D+00  E= 1.420496D-01

 Vector   16  Occ=0.000000D+00  E= 1.328817D+00

 Vector   17  Occ=0.000000D+00  E= 1.331116D+00

 Vector   18  Occ=0.000000D+00  E= 1.331116D+00

 Vector   19  Occ=0.000000D+00  E= 1.493070D+00

 Vector   20  Occ=0.000000D+00  E= 1.998159D+00

 Vector   21  Occ=0.000000D+00  E= 1.998160D+00

 Vector   22  Occ=0.000000D+00  E= 3.487957D+00

 Vector   23  Occ=0.000000D+00  E= 2.070064D+01

 Vector   24  Occ=0.000000D+00  E= 1.166344D+02

 Vector    1  Occ=1.000000D+00  E=-1.975662D+01

 Vector    2  Occ=1.000000D+00  E=-1.827480D+00

 Vector    3  Occ=1.000000D+00  E=-1.365492D+00

 Vector    4  Occ=1.000000D+00  E=-1.365492D+00

 Vector    5  Occ=0.000000D+00  E=-1.107675D+00

 Vector    6  Occ=0.000000D+00  E=-6.348345D-01

 Vector    7  Occ=0.000000D+00  E=-5.443651D-01

 Vector    8  Occ=0.000000D+00  E=-5.443648D-01

 Vector    9  Occ=0.000000D+00  E=-2.822375D-01

 Vector   10  Occ=0.000000D+00  E=-2.822371D-01

 Vector   11  Occ=0.000000D+00  E=-2.537350D-01

 Vector   12  Occ=0.000000D+00  E=-2.512959D-01

 Vector   13  Occ=0.000000D+00  E=-7.716342D-02

 Vector   14  Occ=0.000000D+00  E=-7.716326D-02

 Vector   15  Occ=0.000000D+00  E= 1.729080D-01

 Vector   16  Occ=0.000000D+00  E= 1.324477D+00

 Vector   17  Occ=0.000000D+00  E= 1.332055D+00

 Vector   18  Occ=0.000000D+00  E= 1.332055D+00

 Vector   19  Occ=0.000000D+00  E= 1.614357D+00

 Vector   20  Occ=0.000000D+00  E= 2.018165D+00

 Vector   21  Occ=0.000000D+00  E= 2.018167D+00

 Vector   22  Occ=0.000000D+00  E= 3.555845D+00

 Vector   23  Occ=0.000000D+00  E= 2.075815D+01

 Vector   24  Occ=0.000000D+00  E= 1.166652D+02

     Multipole analysis of the density
     ---------------------------------

     L   x y z        total         alpha         beta         nuclear
     -   - - -        -----         -----         ----         -------
     0   0 0 0      2.000000     -5.000000     -4.000000     11.000000

     1   1 0 0     -0.000003     -0.000002     -0.000001     -0.000000
     1   0 1 0      0.000005      0.000004      0.000001      0.000000
     1   0 0 1      0.000056      0.000046      0.000010     -0.000000

     2   2 0 0     -0.166134     -2.769785     -2.563887      5.167539
     2   1 1 0      0.008423     -0.001807     -0.003846      0.014077
     2   1 0 1      0.097453     -0.020903     -0.044480      0.162836
     2   0 2 0     -0.186013     -2.765522     -2.554816      5.134324
     2   0 1 1     -0.265520      0.056954      0.121191     -0.443665

 Total times  cpu:        0.3s     wall:        0.5s
