 Output coordinates in angstroms (scale by  1.889725989 to convert to a.u.)

  No.       Tag          Charge          X              Y              Z
 ---- ---------------- ---------- -------------- -------------- --------------
    1 O                    8.0000    -0.06590047     0.07367940    -0.05707045
    2 H                    1.0000     0.91754204     0.07085057    -0.05487930
    3 H                    1.0000    -0.39033830    -0.66028576     0.51144292

         Total DFT energy =      -75.883841988445

                    DFT Final Alpha Molecular Orbital Analysis
                    ------------------------------------------

 Vector    1  Occ=1.000000D+00  E=-1.931353D+01

 Vector    2  Occ=1.000000D+00  E=-1.444455D+00

 Vector    3  Occ=1.000000D+00  E=-9.525026D-01

 Vector    4  Occ=1.000000D+00  E=-8.083273D-01

 Vector    5  Occ=1.000000D+00  E=-7.806765D-01

 Vector    6  Occ=0.000000D+00  E=-3.303505D-01

 Vector    7  Occ=0.000000D+00  E=-2.496054D-01

 Vector    8  Occ=0.000000D+00  E= 1.975484D-02

 Vector    9  Occ=0.000000D+00  E= 2.003711D-02

 Vector   10  Occ=0.000000D+00  E= 2.700295D-02

 Vector   11  Occ=0.000000D+00  E= 6.613834D-02

 Vector   12  Occ=0.000000D+00  E= 2.094058D-01

 Vector   13  Occ=0.000000D+00  E= 4.560032D-01

 Vector   14  Occ=0.000000D+00  E= 1.617196D+00

 Vector   15  Occ=0.000000D+00  E= 1.672785D+00

 Vector   16  Occ=0.000000D+00  E= 1.912124D+00

 Vector   17  Occ=0.000000D+00  E= 2.128213D+00

 Vector   18  Occ=0.000000D+00  E= 2.351278D+00

 Vector   19  Occ=0.000000D+00  E= 3.883165D+00

 Vector   20  Occ=0.000000D+00  E= 2.112810D+01

 Vector   21  Occ=0.000000D+00  E= 1.170619D+02

 Vector    1  Occ=1.000000D+00  E=-1.928819D+01

 Vector    2  Occ=1.000000D+00  E=-1.385718D+00

 Vector    3  Occ=1.000000D+00  E=-9.326616D-01

 Vector    4  Occ=1.000000D+00  E=-7.508351D-01

 Vector    5  Occ=0.000000D+00  E=-6.697118D-01

 Vector    6  Occ=0.000000D+00  E=-3.194100D-01

 Vector    7  Occ=0.000000D+00  E=-2.432090D-01

 Vector    8  Occ=0.000000D+00  E= 2.274164D-02

 Vector    9  Occ=0.000000D+00  E= 3.043614D-02

 Vector   10  Occ=0.000000D+00  E= 7.635818D-02

 Vector   11  Occ=0.000000D+00  E= 7.818145D-02

 Vector   12  Occ=0.000000D+00  E= 2.176196D-01

 Vector   13  Occ=0.000000D+00  E= 4.883878D-01

 Vector   14  Occ=0.000000D+00  E= 1.617654D+00

 Vector   15  Occ=0.000000D+00  E= 1.672321D+00

 Vector   16  Occ=0.000000D+00  E= 2.031587D+00

 Vector   17  Occ=0.000000D+00  E= 2.148511D+00

 Vector   18  Occ=0.000000D+00  E= 2.373437D+00

 Vector   19  Occ=0.000000D+00  E= 3.948960D+00

 Vector   20  Occ=0.000000D+00  E= 2.118258D+01

 Vector   21  Occ=0.000000D+00  E= 1.170910D+02

     Multipole analysis of the density
     ---------------------------------

     L   x y z        total         alpha         beta         nuclear
     -   - - -        -----         -----         ----         -------
     0   0 0 0      1.000000     -5.000000     -4.000000     10.000000

     1   1 0 0      0.589713      0.367617      0.222095     -0.000000
     1   0 1 0     -0.659323     -0.411011     -0.248312      0.000000
     1   0 0 1      0.510697      0.318360      0.192337      0.000000

     2   2 0 0     -2.084499     -3.005616     -2.753474      3.674591
     2   1 1 0      0.768247     -0.104268     -0.141307      1.013822
     2   1 0 1     -0.595067      0.080764      0.109453     -0.785284
     2   0 2 0     -3.071728     -2.685317     -2.116328      1.729918
     2   0 1 1     -0.387438      0.293114      0.659404     -1.339956

 Total times  cpu:        0.2s     wall:        0.5s
