 Output coordinates in angstroms (scale by  1.889725989 to convert to a.u.)

  No.       Tag          Charge          X              Y              Z
 ---- ---------------- ---------- -------------- -------------- --------------
    1 C                    6.0000    -0.00062929     0.00968701     0.04501533
    2 O                    8.0000     0.00164820     0.16816179     1.34971209
    3 C                    6.0000    -0.00833477     1.25423520    -0.73049374
    4 C                    6.0000     0.01201573    -1.32785904    -0.57197009
    5 H                    1.0000     0.29595998     2.11739483    -0.12974800
    6 H                    1.0000    -0.25376758    -2.14206659     0.11396808
    7 H                    1.0000     0.60170572     1.15993505    -1.64035759
    8 H                    1.0000    -1.04361142     1.43912077    -1.08567212
    9 H                    1.0000    -0.64356424    -1.35306925    -1.45524131
   10 H                    1.0000     1.03124698    -1.52464363    -0.96094732
   11 H                    1.0000    -0.01946500    -0.65834437     1.90499244

         Total DFT energy =     -192.567770584986

                    DFT Final Alpha Molecular Orbital Analysis
                    ------------------------------------------

 Vector    1  Occ=1.000000D+00  E=-1.937657D+01

 Vector    2  Occ=1.000000D+00  E=-1.053460D+01

 Vector    3  Occ=1.000000D+00  E=-1.039102D+01

 Vector    4  Occ=1.000000D+00  E=-1.037756D+01

 Vector    5  Occ=1.000000D+00  E=-1.540572D+00

 Vector    6  Occ=1.000000D+00  E=-1.222283D+00

 Vector    7  Occ=1.000000D+00  E=-1.139491D+00

 Vector    8  Occ=1.000000D+00  E=-1.073123D+00

 Vector    9  Occ=1.000000D+00  E=-9.442693D-01

 Vector   10  Occ=1.000000D+00  E=-9.101982D-01

 Vector   11  Occ=1.000000D+00  E=-9.080216D-01

 Vector   12  Occ=1.000000D+00  E=-8.319311D-01

 Vector   13  Occ=1.000000D+00  E=-8.201464D-01

 Vector   14  Occ=1.000000D+00  E=-8.096154D-01

 Vector   15  Occ=1.000000D+00  E=-8.040592D-01

 Vector   16  Occ=0.000000D+00  E=-8.074449D-01

 Vector   17  Occ=0.000000D+00  E=-5.906472D-01

 Vector   18  Occ=0.000000D+00  E=-4.166536D-01

 Vector   19  Occ=0.000000D+00  E=-3.482675D-01

 Vector   20  Occ=0.000000D+00  E=-3.399432D-01

 Vector   21  Occ=0.000000D+00  E=-3.069050D-01

 Vector   22  Occ=0.000000D+00  E=-2.967672D-01

 Vector   23  Occ=0.000000D+00  E=-2.928519D-01

 Vector   24  Occ=0.000000D+00  E=-2.848027D-01

 Vector   25  Occ=0.000000D+00  E=-2.668832D-01

 Vector   26  Occ=0.000000D+00  E=-2.366104D-01

 Vector   27  Occ=0.000000D+00  E=-2.033340D-01

 Vector   28  Occ=0.000000D+00  E=-1.985375D-01

 Vector   29  Occ=0.000000D+00  E=-1.724459D-01

 Vector   30  Occ=0.000000D+00  E=-1.541563D-01

 Vector   31  Occ=0.000000D+00  E=-1.437200D-01

 Vector   32  Occ=0.000000D+00  E=-1.174407D-01

 Vector   33  Occ=0.000000D+00  E=-1.069966D-01

 Vector   34  Occ=0.000000D+00  E=-1.024062D-01

 Vector   35  Occ=0.000000D+00  E=-8.555677D-02

 Vector   36  Occ=0.000000D+00  E=-7.574078D-02

 Vector   37  Occ=0.000000D+00  E= 5.153916D-03

 Vector   38  Occ=0.000000D+00  E= 3.350102D-02

 Vector   39  Occ=0.000000D+00  E= 4.162427D-02

 Vector   40  Occ=0.000000D+00  E= 4.897927D-02

 Vector   41  Occ=0.000000D+00  E= 5.865609D-02

 Vector   42  Occ=0.000000D+00  E= 7.259344D-02

 Vector   43  Occ=0.000000D+00  E= 7.683613D-02

 Vector   44  Occ=0.000000D+00  E= 8.105969D-02

 Vector   45  Occ=0.000000D+00  E= 9.769267D-02

 Vector   46  Occ=0.000000D+00  E= 1.331233D-01

 Vector   47  Occ=0.000000D+00  E= 1.956843D-01

 Vector   48  Occ=0.000000D+00  E= 2.863043D-01

 Vector   49  Occ=0.000000D+00  E= 3.728412D-01

 Vector   50  Occ=0.000000D+00  E= 6.311226D-01

 Vector   51  Occ=0.000000D+00  E= 8.402160D-01

 Vector   52  Occ=0.000000D+00  E= 8.557790D-01

 Vector   53  Occ=0.000000D+00  E= 9.294616D-01

 Vector   54  Occ=0.000000D+00  E= 9.675415D-01

 Vector   55  Occ=0.000000D+00  E= 9.912373D-01

 Vector   56  Occ=0.000000D+00  E= 1.058342D+00

 Vector   57  Occ=0.000000D+00  E= 1.085330D+00

 Vector   58  Occ=0.000000D+00  E= 1.207620D+00

 Vector   59  Occ=0.000000D+00  E= 1.243746D+00

 Vector   60  Occ=0.000000D+00  E= 1.571137D+00

 Vector   61  Occ=0.000000D+00  E= 1.641522D+00

 Vector   62  Occ=0.000000D+00  E= 1.710146D+00

 Vector   63  Occ=0.000000D+00  E= 1.847073D+00

 Vector   64  Occ=0.000000D+00  E= 1.864088D+00

 Vector   65  Occ=0.000000D+00  E= 1.867201D+00

 Vector   66  Occ=0.000000D+00  E= 1.873630D+00

 Vector   67  Occ=0.000000D+00  E= 1.934256D+00

 Vector   68  Occ=0.000000D+00  E= 1.993187D+00

 Vector   69  Occ=0.000000D+00  E= 2.100707D+00

 Vector   70  Occ=0.000000D+00  E= 2.288440D+00

 Vector   71  Occ=0.000000D+00  E= 2.317048D+00

 Vector   72  Occ=0.000000D+00  E= 2.536154D+00

 Vector   73  Occ=0.000000D+00  E= 4.082200D+00

 Vector   74  Occ=0.000000D+00  E= 1.101337D+01

 Vector   75  Occ=0.000000D+00  E= 1.120984D+01

 Vector   76  Occ=0.000000D+00  E= 1.123892D+01

 Vector   77  Occ=0.000000D+00  E= 2.134096D+01

 Vector   78  Occ=0.000000D+00  E= 6.194520D+01

 Vector   79  Occ=0.000000D+00  E= 6.215654D+01

 Vector   80  Occ=0.000000D+00  E= 6.218510D+01

 Vector   81  Occ=0.000000D+00  E= 1.172724D+02

     Multipole analysis of the density
     ---------------------------------

     L   x y z        total         alpha         beta         nuclear
     -   - - -        -----         -----         ----         -------
     0   0 0 0      2.000000    -16.000000    -15.000000     33.000000

     1   1 0 0     -0.052801      0.009648     -0.062449     -0.000000
     1   0 1 0     -0.693508     -0.436785     -0.256723      0.000000
     1   0 0 1     -0.455566     -0.230965     -0.224601      0.000000

     2   2 0 0    -14.202828    -12.962219    -12.248401     11.007792
     2   1 1 0     -0.207255      0.535667      0.966360     -1.709281
     2   1 0 1      0.274491     -0.094901      0.369056      0.000336
     2   0 2 0     -2.790129    -71.221229    -64.847318    133.278418
     2   0 1 1     -2.719040      0.024597      0.562770     -3.306408

 Total times  cpu:      142.6s     wall:      147.0s
