 Output coordinates in angstroms (scale by  1.889725989 to convert to a.u.)

  No.       Tag          Charge          X              Y              Z
 ---- ---------------- ---------- -------------- -------------- --------------
    1 C                    6.0000    -0.79843942     0.30990207     0.33887916
    2 C                    6.0000     0.67514423     0.45746085     0.50260204
    3 C                    6.0000     1.66879601    -0.25625929    -0.27992317
    4 H                    1.0000     1.49651091    -1.34751320    -0.19139238
    5 H                    1.0000     2.69072439     0.00369119     0.00593318
    6 H                    1.0000     1.49715931    -0.06728824    -1.35841214
    7 O                    8.0000     1.14128512     1.28635695     1.41321037
    8 Cl                  17.0000    -1.29853960    -0.88185979    -0.96882573
    9 H                    1.0000    -1.24691761     1.28575182     0.08549893
   10 H                    1.0000    -1.24862695    -0.03152884     1.28668789
   11 H                    1.0000     0.48303709     1.79102609     1.96669101

         Total DFT energy =     -652.053192959556

                    DFT Final Alpha Molecular Orbital Analysis
                    ------------------------------------------

 Vector    1  Occ=1.000000D+00  E=-1.012285D+02

 Vector   21  Occ=1.000000D+00  E=-7.515033D-01

 Vector   22  Occ=1.000000D+00  E=-7.513563D-01

 Vector   23  Occ=1.000000D+00  E=-7.334117D-01

 Vector   24  Occ=0.000000D+00  E=-7.316638D-01

 Vector   25  Occ=0.000000D+00  E=-5.493296D-01

 Vector   26  Occ=0.000000D+00  E=-4.986028D-01

 Vector   27  Occ=0.000000D+00  E=-3.761409D-01

 Vector   28  Occ=0.000000D+00  E=-3.417325D-01

 Vector   29  Occ=0.000000D+00  E=-3.023478D-01

 Vector   30  Occ=0.000000D+00  E=-2.961399D-01

 Vector   31  Occ=0.000000D+00  E=-2.804668D-01

 Vector   32  Occ=0.000000D+00  E=-2.605172D-01

 Vector   33  Occ=0.000000D+00  E=-2.525397D-01

 Vector   34  Occ=0.000000D+00  E=-2.085286D-01

 Vector   35  Occ=0.000000D+00  E=-1.978319D-01

 Vector   36  Occ=0.000000D+00  E=-1.729039D-01

 Vector   37  Occ=0.000000D+00  E=-1.609202D-01

 Vector   38  Occ=0.000000D+00  E=-1.324262D-01

 Vector   39  Occ=0.000000D+00  E=-1.224720D-01

 Vector   40  Occ=0.000000D+00  E=-1.126190D-01

 Vector   41  Occ=0.000000D+00  E=-7.737533D-02

 Vector   42  Occ=0.000000D+00  E=-7.513886D-02

 Vector   43  Occ=0.000000D+00  E=-5.937515D-02

 Vector   44  Occ=0.000000D+00  E=-4.684411D-02

 Vector   45  Occ=0.000000D+00  E=-2.380291D-02

 Vector   46  Occ=0.000000D+00  E=-1.901836D-04

 Vector   47  Occ=0.000000D+00  E= 8.282696D-03

 Vector   48  Occ=0.000000D+00  E= 1.179227D-02

 Vector   49  Occ=0.000000D+00  E= 4.097724D-02

 Vector   50  Occ=0.000000D+00  E= 5.847437D-02

 Vector   51  Occ=0.000000D+00  E= 7.733642D-02

 Vector   52  Occ=0.000000D+00  E= 9.306877D-02

 Vector   53  Occ=0.000000D+00  E= 1.242800D-01

 Vector   54  Occ=0.000000D+00  E= 1.339077D-01

 Vector   55  Occ=0.000000D+00  E= 1.454491D-01

 Vector   56  Occ=0.000000D+00  E= 1.615929D-01

 Vector   57  Occ=0.000000D+00  E= 2.087858D-01

 Vector   58  Occ=0.000000D+00  E= 3.013978D-01

 Vector   59  Occ=0.000000D+00  E= 3.465204D-01

 Vector   60  Occ=0.000000D+00  E= 5.648882D-01

 Vector   61  Occ=0.000000D+00  E= 6.849946D-01

 Vector   62  Occ=0.000000D+00  E= 8.687982D-01

 Vector   63  Occ=0.000000D+00  E= 8.933311D-01

 Vector   64  Occ=0.000000D+00  E= 9.390916D-01

 Vector   65  Occ=0.000000D+00  E= 9.989705D-01

 Vector   66  Occ=0.000000D+00  E= 1.002274D+00

 Vector   67  Occ=0.000000D+00  E= 1.082916D+00

 Vector   68  Occ=0.000000D+00  E= 1.116588D+00

 Vector   69  Occ=0.000000D+00  E= 1.203714D+00

 Vector   70  Occ=0.000000D+00  E= 1.297885D+00

 Vector   71  Occ=0.000000D+00  E= 1.627845D+00

 Vector   72  Occ=0.000000D+00  E= 1.657156D+00

 Vector   73  Occ=0.000000D+00  E= 1.746497D+00

 Vector   74  Occ=0.000000D+00  E= 1.776482D+00

 Vector   75  Occ=0.000000D+00  E= 1.819451D+00

 Vector   76  Occ=0.000000D+00  E= 1.861202D+00

 Vector   77  Occ=0.000000D+00  E= 1.877218D+00

 Vector   78  Occ=0.000000D+00  E= 1.903328D+00

 Vector   79  Occ=0.000000D+00  E= 1.961011D+00

 Vector   80  Occ=0.000000D+00  E= 1.984544D+00

 Vector   81  Occ=0.000000D+00  E= 2.074304D+00

 Vector   82  Occ=0.000000D+00  E= 2.107678D+00

 Vector   83  Occ=0.000000D+00  E= 2.271382D+00

 Vector   84  Occ=0.000000D+00  E= 2.384417D+00

 Vector   85  Occ=0.000000D+00  E= 2.610505D+00

 Vector   86  Occ=0.000000D+00  E= 4.150558D+00

 Vector   87  Occ=0.000000D+00  E= 8.512548D+00

 Vector   88  Occ=0.000000D+00  E= 1.105993D+01

 Vector   89  Occ=0.000000D+00  E= 1.118929D+01

 Vector   90  Occ=0.000000D+00  E= 1.131352D+01

 Vector   91  Occ=0.000000D+00  E= 2.141985D+01

 Vector   92  Occ=0.000000D+00  E= 4.020342D+01

 Vector   93  Occ=0.000000D+00  E= 4.022153D+01

 Vector   94  Occ=0.000000D+00  E= 4.022715D+01

 Vector   95  Occ=0.000000D+00  E= 6.199180D+01

 Vector   96  Occ=0.000000D+00  E= 6.212911D+01

 Vector   97  Occ=0.000000D+00  E= 6.226255D+01

 Vector   98  Occ=0.000000D+00  E= 1.173554D+02

 Vector   99  Occ=0.000000D+00  E= 1.225231D+02

 Vector  100  Occ=0.000000D+00  E= 8.990726D+02

     Multipole analysis of the density
     ---------------------------------

     L   x y z        total         alpha         beta         nuclear
     -   - - -        -----         -----         ----         -------
     0   0 0 0      2.000000    -24.000000    -23.000000     49.000000

     1   1 0 0     -0.579315      0.695138     -1.274453     -0.000000
     1   0 1 0      0.573974      0.832114     -0.258140      0.000000
     1   0 0 1      0.628974      0.913687     -0.284713      0.000000

     2   2 0 0    -13.164530   -148.106698   -141.541054    276.483222
     2   1 1 0      0.819496    -48.160739    -44.612079     93.592314
     2   1 0 1      0.908697    -52.976274    -49.076982    102.961953
     2   0 2 0    -15.392910    -73.016200    -68.672213    126.295503
     2   0 1 1      6.839514    -61.150042    -58.599439    126.588995

 Total times  cpu:       51.0s     wall:       52.4s
