 Output coordinates in angstroms (scale by  1.889725989 to convert to a.u.)

  No.       Tag          Charge          X              Y              Z
 ---- ---------------- ---------- -------------- -------------- --------------
    1 C                    6.0000     1.66318888    -1.59036989     0.70311288
    2 H                    1.0000     1.64252999    -2.32009213     1.52717088
    3 H                    1.0000     2.44329495    -0.85108457     0.92785158
    4 H                    1.0000     1.93759252    -2.12740724    -0.21469979
    5 C                    6.0000     0.27763053    -0.94710130     0.60064094
    6 H                    1.0000    -0.49002374    -1.70271068     0.37966349
    7 H                    1.0000     0.00503378    -0.43221703     1.53222774
    8 C                    6.0000     0.30618379     0.15785424    -0.58059386
    9 H                    1.0000     1.04614266     0.92508152    -0.32558856
   10 H                    1.0000     0.58406396    -0.38580146    -1.49596277
   11 C                    6.0000    -1.02103248     0.69099515    -0.69526382
   12 H                    1.0000    -1.83407556     0.13196869    -1.17911899
   13 O                    8.0000    -1.30500911     1.84285676    -0.14202781
   14 H                    1.0000    -2.25030993     2.15113947    -0.18269776

         Total DFT energy =     -231.895341735761

                    DFT Final Alpha Molecular Orbital Analysis
                    ------------------------------------------

 Vector    1  Occ=1.000000D+00  E=-1.927635D+01

 Vector   23  Occ=0.000000D+00  E=-3.234612D-01

 Vector   24  Occ=0.000000D+00  E=-3.011890D-01

 Vector   25  Occ=0.000000D+00  E=-2.922870D-01

 Vector   26  Occ=0.000000D+00  E=-2.769465D-01

 Vector   27  Occ=0.000000D+00  E=-2.741252D-01

 Vector   28  Occ=0.000000D+00  E=-2.520394D-01

 Vector   29  Occ=0.000000D+00  E=-2.418111D-01

 Vector   30  Occ=0.000000D+00  E=-2.371214D-01

 Vector   31  Occ=0.000000D+00  E=-2.201838D-01

 Vector   32  Occ=0.000000D+00  E=-2.092969D-01

 Vector   33  Occ=0.000000D+00  E=-1.908690D-01

 Vector   34  Occ=0.000000D+00  E=-1.799459D-01

 Vector   35  Occ=0.000000D+00  E=-1.471636D-01

 Vector   36  Occ=0.000000D+00  E=-1.394660D-01

 Vector   37  Occ=0.000000D+00  E=-1.239462D-01

 Vector   38  Occ=0.000000D+00  E=-1.170287D-01

 Vector   39  Occ=0.000000D+00  E=-1.060168D-01

 Vector   40  Occ=0.000000D+00  E=-8.929818D-02

 Vector   41  Occ=0.000000D+00  E=-6.729019D-02

 Vector   42  Occ=0.000000D+00  E=-3.966861D-02

 Vector   43  Occ=0.000000D+00  E=-3.242251D-02

 Vector   44  Occ=0.000000D+00  E=-2.926344D-02

 Vector   45  Occ=0.000000D+00  E= 7.876072D-03

 Vector   46  Occ=0.000000D+00  E= 3.762685D-02

 Vector   47  Occ=0.000000D+00  E= 4.951589D-02

 Vector   48  Occ=0.000000D+00  E= 6.101822D-02

 Vector   49  Occ=0.000000D+00  E= 8.803267D-02

 Vector   50  Occ=0.000000D+00  E= 9.004312D-02

 Vector   51  Occ=0.000000D+00  E= 9.575577D-02

 Vector   52  Occ=0.000000D+00  E= 1.140725D-01

 Vector   53  Occ=0.000000D+00  E= 1.166998D-01

 Vector   54  Occ=0.000000D+00  E= 1.349581D-01

 Vector   55  Occ=0.000000D+00  E= 1.405791D-01

 Vector   56  Occ=0.000000D+00  E= 1.441095D-01

 Vector   57  Occ=0.000000D+00  E= 1.746410D-01

 Vector   58  Occ=0.000000D+00  E= 2.007511D-01

 Vector   59  Occ=0.000000D+00  E= 2.761295D-01

 Vector   60  Occ=0.000000D+00  E= 3.050570D-01

 Vector   61  Occ=0.000000D+00  E= 3.473252D-01

 Vector   62  Occ=0.000000D+00  E= 4.071339D-01

 Vector   63  Occ=0.000000D+00  E= 7.218627D-01

 Vector   64  Occ=0.000000D+00  E= 8.888293D-01

 Vector   65  Occ=0.000000D+00  E= 9.192579D-01

 Vector   66  Occ=0.000000D+00  E= 9.718111D-01

 Vector   67  Occ=0.000000D+00  E= 1.017150D+00

 Vector   68  Occ=0.000000D+00  E= 1.018313D+00

 Vector   69  Occ=0.000000D+00  E= 1.049710D+00

 Vector   70  Occ=0.000000D+00  E= 1.096322D+00

 Vector   71  Occ=0.000000D+00  E= 1.133528D+00

 Vector   72  Occ=0.000000D+00  E= 1.145705D+00

 Vector   73  Occ=0.000000D+00  E= 1.181147D+00

 Vector   74  Occ=0.000000D+00  E= 1.308180D+00

 Vector   75  Occ=0.000000D+00  E= 1.355032D+00

 Vector   76  Occ=0.000000D+00  E= 1.644073D+00

 Vector   77  Occ=0.000000D+00  E= 1.708508D+00

 Vector   78  Occ=0.000000D+00  E= 1.758378D+00

 Vector   79  Occ=0.000000D+00  E= 1.818485D+00

 Vector   80  Occ=0.000000D+00  E= 1.824350D+00

 Vector   81  Occ=0.000000D+00  E= 1.913033D+00

 Vector   82  Occ=0.000000D+00  E= 1.930530D+00

 Vector   83  Occ=0.000000D+00  E= 1.949905D+00

 Vector   84  Occ=0.000000D+00  E= 2.022128D+00

 Vector   85  Occ=0.000000D+00  E= 2.050688D+00

 Vector   86  Occ=0.000000D+00  E= 2.141760D+00

 Vector   87  Occ=0.000000D+00  E= 2.198173D+00

 Vector   88  Occ=0.000000D+00  E= 2.266579D+00

 Vector   89  Occ=0.000000D+00  E= 2.289211D+00

 Vector   90  Occ=0.000000D+00  E= 2.455553D+00

 Vector   91  Occ=0.000000D+00  E= 2.532514D+00

 Vector   92  Occ=0.000000D+00  E= 4.169617D+00

 Vector   93  Occ=0.000000D+00  E= 1.108666D+01

 Vector   94  Occ=0.000000D+00  E= 1.125039D+01

 Vector   95  Occ=0.000000D+00  E= 1.127220D+01

 Vector   96  Occ=0.000000D+00  E= 1.133399D+01

 Vector   97  Occ=0.000000D+00  E= 2.142886D+01

 Vector   98  Occ=0.000000D+00  E= 6.202478D+01

 Vector   99  Occ=0.000000D+00  E= 6.218680D+01

 Vector  100  Occ=0.000000D+00  E= 6.221638D+01

 Vector  101  Occ=0.000000D+00  E= 6.228193D+01

 Vector  102  Occ=0.000000D+00  E= 1.173647D+02

     Multipole analysis of the density
     ---------------------------------

     L   x y z        total         alpha         beta         nuclear
     -   - - -        -----         -----         ----         -------
     0   0 0 0      2.000000    -20.000000    -19.000000     41.000000

     1   1 0 0     -0.435459     -1.088830      0.653370      0.000000
     1   0 1 0     -0.738533      0.593299     -1.331832     -0.000000
     1   0 0 1     -0.069751     -0.528451      0.458699      0.000000

     2   2 0 0     -0.386601   -111.293892   -103.452495    214.359786
     2   1 1 0    -13.421618     92.465515     87.490919   -193.378051
     2   1 0 1      5.484879    -31.130758    -28.495448     65.111085
     2   0 2 0     -5.385933   -132.099688   -123.651743    250.365498
     2   0 1 1     -4.932623     36.701607     33.737654    -75.371884

 Total times  cpu:      205.1s     wall:      210.7s
