 Output coordinates in angstroms (scale by  1.889725989 to convert to a.u.)

  No.       Tag          Charge          X              Y              Z
 ---- ---------------- ---------- -------------- -------------- --------------
    1 C                    6.0000    -0.83748131    -0.06761647     0.51770236
    2 C                    6.0000     0.52428173     0.39369765     0.67436314
    3 C                    6.0000     1.47250186     0.25922839    -0.51123250
    4 H                    1.0000     0.90742206    -0.10985024     1.59600964
    5 H                    1.0000     0.44370115     1.44400573     1.04877565
    6 O                    8.0000    -1.21776434    -0.58043851    -0.61720147
    7 H                    1.0000    -1.56957937     0.00185415     1.33522108
    8 H                    1.0000     1.11217629     0.82221898    -1.38239511
    9 H                    1.0000     1.59578389    -0.78936342    -0.81287189
   10 H                    1.0000     2.45820710     0.65200532    -0.23671846
   11 H                    1.0000    -2.16141004    -0.88921996    -0.69540727

         Total DFT energy =     -192.588123253483

                    DFT Final Alpha Molecular Orbital Analysis
                    ------------------------------------------

 Vector    1  Occ=1.000000D+00  E=-1.932564D+01

 Vector    2  Occ=1.000000D+00  E=-1.049615D+01

 Vector    3  Occ=1.000000D+00  E=-1.040379D+01

 Vector    4  Occ=1.000000D+00  E=-1.036809D+01

 Vector    5  Occ=1.000000D+00  E=-1.509710D+00

 Vector    6  Occ=1.000000D+00  E=-1.216980D+00

 Vector    7  Occ=1.000000D+00  E=-1.099797D+00

 Vector    8  Occ=1.000000D+00  E=-1.042897D+00

 Vector    9  Occ=1.000000D+00  E=-9.666296D-01

 Vector   10  Occ=1.000000D+00  E=-9.000373D-01

 Vector   11  Occ=1.000000D+00  E=-8.923626D-01

 Vector   12  Occ=1.000000D+00  E=-8.280576D-01

 Vector   13  Occ=1.000000D+00  E=-8.221321D-01

 Vector   14  Occ=1.000000D+00  E=-7.831753D-01

 Vector   15  Occ=1.000000D+00  E=-7.713402D-01

 Vector   16  Occ=0.000000D+00  E=-7.680176D-01

 Vector   17  Occ=0.000000D+00  E=-5.788599D-01

 Vector   18  Occ=0.000000D+00  E=-3.984145D-01

 Vector   19  Occ=0.000000D+00  E=-3.401820D-01

 Vector   20  Occ=0.000000D+00  E=-3.303866D-01

 Vector   21  Occ=0.000000D+00  E=-3.144566D-01

 Vector   22  Occ=0.000000D+00  E=-2.972768D-01

 Vector   23  Occ=0.000000D+00  E=-2.794888D-01

 Vector   24  Occ=0.000000D+00  E=-2.648536D-01

 Vector   25  Occ=0.000000D+00  E=-2.590684D-01

 Vector   26  Occ=0.000000D+00  E=-2.387224D-01

 Vector   27  Occ=0.000000D+00  E=-1.978664D-01

 Vector   28  Occ=0.000000D+00  E=-1.817833D-01

 Vector   29  Occ=0.000000D+00  E=-1.814489D-01

 Vector   30  Occ=0.000000D+00  E=-1.601111D-01

 Vector   31  Occ=0.000000D+00  E=-1.413602D-01

 Vector   32  Occ=0.000000D+00  E=-1.310121D-01

 Vector   33  Occ=0.000000D+00  E=-9.916660D-02

 Vector   34  Occ=0.000000D+00  E=-8.288522D-02

 Vector   35  Occ=0.000000D+00  E=-6.170249D-02

 Vector   36  Occ=0.000000D+00  E=-2.448051D-02

 Vector   37  Occ=0.000000D+00  E= 1.444474D-02

 Vector   38  Occ=0.000000D+00  E= 1.818221D-02

 Vector   39  Occ=0.000000D+00  E= 4.510911D-02

 Vector   40  Occ=0.000000D+00  E= 4.807300D-02

 Vector   41  Occ=0.000000D+00  E= 5.647004D-02

 Vector   42  Occ=0.000000D+00  E= 7.955824D-02

 Vector   43  Occ=0.000000D+00  E= 9.086222D-02

 Vector   44  Occ=0.000000D+00  E= 9.599332D-02

 Vector   45  Occ=0.000000D+00  E= 1.129076D-01

 Vector   46  Occ=0.000000D+00  E= 1.352882D-01

 Vector   47  Occ=0.000000D+00  E= 1.905371D-01

 Vector   48  Occ=0.000000D+00  E= 3.104271D-01

 Vector   49  Occ=0.000000D+00  E= 3.944719D-01

 Vector   50  Occ=0.000000D+00  E= 6.569189D-01

 Vector   51  Occ=0.000000D+00  E= 8.624356D-01

 Vector   52  Occ=0.000000D+00  E= 8.702474D-01

 Vector   53  Occ=0.000000D+00  E= 9.350576D-01

 Vector   54  Occ=0.000000D+00  E= 9.770942D-01

 Vector   55  Occ=0.000000D+00  E= 1.024308D+00

 Vector   56  Occ=0.000000D+00  E= 1.041926D+00

 Vector   57  Occ=0.000000D+00  E= 1.134718D+00

 Vector   58  Occ=0.000000D+00  E= 1.148267D+00

 Vector   59  Occ=0.000000D+00  E= 1.283334D+00

 Vector   60  Occ=0.000000D+00  E= 1.607502D+00

 Vector   61  Occ=0.000000D+00  E= 1.695937D+00

 Vector   62  Occ=0.000000D+00  E= 1.729265D+00

 Vector   63  Occ=0.000000D+00  E= 1.775999D+00

 Vector   64  Occ=0.000000D+00  E= 1.859074D+00

 Vector   65  Occ=0.000000D+00  E= 1.880612D+00

 Vector   66  Occ=0.000000D+00  E= 1.903883D+00

 Vector   67  Occ=0.000000D+00  E= 1.984912D+00

 Vector   68  Occ=0.000000D+00  E= 2.001817D+00

 Vector   69  Occ=0.000000D+00  E= 2.158093D+00

 Vector   70  Occ=0.000000D+00  E= 2.248291D+00

 Vector   71  Occ=0.000000D+00  E= 2.357299D+00

 Vector   72  Occ=0.000000D+00  E= 2.512621D+00

 Vector   73  Occ=0.000000D+00  E= 4.105044D+00

 Vector   74  Occ=0.000000D+00  E= 1.101735D+01

 Vector   75  Occ=0.000000D+00  E= 1.121164D+01

 Vector   76  Occ=0.000000D+00  E= 1.125143D+01

 Vector   77  Occ=0.000000D+00  E= 2.136746D+01

 Vector   78  Occ=0.000000D+00  E= 6.195279D+01

 Vector   79  Occ=0.000000D+00  E= 6.215271D+01

 Vector   80  Occ=0.000000D+00  E= 6.219785D+01

 Vector   81  Occ=0.000000D+00  E= 1.173017D+02

     Multipole analysis of the density
     ---------------------------------

     L   x y z        total         alpha         beta         nuclear
     -   - - -        -----         -----         ----         -------
     0   0 0 0      2.000000    -16.000000    -15.000000     33.000000

     1   1 0 0     -0.149181     -0.962713      0.813532      0.000000
     1   0 1 0      0.172045     -0.109177      0.281222     -0.000000
     1   0 0 1      0.618094      0.503050      0.115044      0.000000

     2   2 0 0      2.053006    -88.790311    -83.111977    173.955294
     2   1 1 0      4.171208    -21.795233    -21.317482     47.283922
     2   1 0 1     -1.050372      2.041974      0.762874     -3.855220
     2   0 2 0    -11.517030    -22.620466    -19.850802     30.954238
     2   0 1 1      1.111785     -8.011161     -7.891046     17.013993

 Total times  cpu:      286.0s     wall:      296.8s
