 Output coordinates in angstroms (scale by  1.889725989 to convert to a.u.)

  No.       Tag          Charge          X              Y              Z
 ---- ---------------- ---------- -------------- -------------- --------------
    1 C                    6.0000    -0.33576444     0.02707915     0.30267588
    2 C                    6.0000     1.02859642     0.46202853     0.47802541
    3 H                    1.0000     1.45750867    -0.03482087     1.37417700
    4 H                    1.0000     1.03536240     1.53490430     0.76574533
    5 O                    8.0000    -0.69697506    -0.50731733    -0.82483868
    6 H                    1.0000    -1.08722284     0.13370915     1.09887294
    7 H                    1.0000     1.65797168     0.29097802    -0.39990419
    8 H                    1.0000    -1.64481135    -0.80087813    -0.92438929

         Total DFT energy =     -153.243682101550

                    DFT Final Alpha Molecular Orbital Analysis
                    ------------------------------------------

 Vector    1  Occ=1.000000D+00  E=-1.944672D+01

 Vector   41  Occ=0.000000D+00  E= 9.663603D-01

 Vector   42  Occ=0.000000D+00  E= 1.011075D+00

 Vector   43  Occ=0.000000D+00  E= 1.084271D+00

 Vector   44  Occ=0.000000D+00  E= 1.521514D+00

 Vector   45  Occ=0.000000D+00  E= 1.564613D+00

 Vector   46  Occ=0.000000D+00  E= 1.645746D+00

 Vector   47  Occ=0.000000D+00  E= 1.785273D+00

 Vector   48  Occ=0.000000D+00  E= 1.816845D+00

 Vector   49  Occ=0.000000D+00  E= 1.840178D+00

 Vector   50  Occ=0.000000D+00  E= 1.898121D+00

 Vector   51  Occ=0.000000D+00  E= 2.025540D+00

 Vector   52  Occ=0.000000D+00  E= 2.225497D+00

 Vector   53  Occ=0.000000D+00  E= 2.372079D+00

 Vector   54  Occ=0.000000D+00  E= 3.955195D+00

 Vector   55  Occ=0.000000D+00  E= 1.088494D+01

 Vector   56  Occ=0.000000D+00  E= 1.115529D+01

 Vector   57  Occ=0.000000D+00  E= 2.121159D+01

 Vector   58  Occ=0.000000D+00  E= 6.181615D+01

 Vector   59  Occ=0.000000D+00  E= 6.210375D+01

 Vector   60  Occ=0.000000D+00  E= 1.171474D+02

 Vector    1  Occ=1.000000D+00  E=-1.943788D+01

 Vector    2  Occ=1.000000D+00  E=-1.060449D+01

 Vector    3  Occ=1.000000D+00  E=-1.043952D+01

 Vector    4  Occ=1.000000D+00  E=-1.604342D+00

 Vector    5  Occ=1.000000D+00  E=-1.261970D+00

 Vector    6  Occ=1.000000D+00  E=-1.134499D+00

 Vector    7  Occ=1.000000D+00  E=-1.076250D+00

 Vector    8  Occ=1.000000D+00  E=-9.545434D-01

 Vector    9  Occ=1.000000D+00  E=-9.529442D-01

 Vector   10  Occ=1.000000D+00  E=-8.783764D-01

 Vector   11  Occ=1.000000D+00  E=-8.614413D-01

 Vector   12  Occ=0.000000D+00  E=-8.575071D-01

 Vector   13  Occ=0.000000D+00  E=-6.593219D-01

 Vector   14  Occ=0.000000D+00  E=-4.558465D-01

 Vector   15  Occ=0.000000D+00  E=-3.861210D-01

 Vector   16  Occ=0.000000D+00  E=-3.532330D-01

 Vector   17  Occ=0.000000D+00  E=-3.499410D-01

 Vector   18  Occ=0.000000D+00  E=-3.266599D-01

 Vector   19  Occ=0.000000D+00  E=-2.983812D-01

 Vector   20  Occ=0.000000D+00  E=-2.489969D-01

 Vector   21  Occ=0.000000D+00  E=-2.330857D-01

 Vector   22  Occ=0.000000D+00  E=-2.034573D-01

 Vector   23  Occ=0.000000D+00  E=-1.852461D-01

 Vector   24  Occ=0.000000D+00  E=-1.764594D-01

 Vector   25  Occ=0.000000D+00  E=-1.751396D-01

 Vector   26  Occ=0.000000D+00  E=-1.255514D-01

 Vector   27  Occ=0.000000D+00  E=-9.598212D-02

 Vector   28  Occ=0.000000D+00  E=-2.461235D-02

 Vector   29  Occ=0.000000D+00  E=-1.286093D-02

 Vector   30  Occ=0.000000D+00  E= 1.681576D-02

 Vector   31  Occ=0.000000D+00  E= 3.352557D-02

 Vector   32  Occ=0.000000D+00  E= 3.559026D-02

 Vector   33  Occ=0.000000D+00  E= 5.256025D-02

 Vector   34  Occ=0.000000D+00  E= 7.012040D-02

 Vector   35  Occ=0.000000D+00  E= 1.716823D-01

 Vector   36  Occ=0.000000D+00  E= 2.505017D-01

 Vector   37  Occ=0.000000D+00  E= 5.452073D-01

 Vector   38  Occ=0.000000D+00  E= 7.851015D-01

 Vector   39  Occ=0.000000D+00  E= 7.896111D-01

 Vector   40  Occ=0.000000D+00  E= 8.701899D-01

 Vector   41  Occ=0.000000D+00  E= 9.710555D-01

 Vector   42  Occ=0.000000D+00  E= 1.018918D+00

 Vector   43  Occ=0.000000D+00  E= 1.099382D+00

 Vector   44  Occ=0.000000D+00  E= 1.529785D+00

 Vector   45  Occ=0.000000D+00  E= 1.585679D+00

 Vector   46  Occ=0.000000D+00  E= 1.675428D+00

 Vector   47  Occ=0.000000D+00  E= 1.814631D+00

 Vector   48  Occ=0.000000D+00  E= 1.817663D+00

 Vector   49  Occ=0.000000D+00  E= 1.853963D+00

 Vector   50  Occ=0.000000D+00  E= 1.907451D+00

 Vector   51  Occ=0.000000D+00  E= 2.054635D+00

 Vector   52  Occ=0.000000D+00  E= 2.237205D+00

 Vector   53  Occ=0.000000D+00  E= 2.385299D+00

 Vector   54  Occ=0.000000D+00  E= 3.976422D+00

 Vector   55  Occ=0.000000D+00  E= 1.088895D+01

 Vector   56  Occ=0.000000D+00  E= 1.116302D+01

 Vector   57  Occ=0.000000D+00  E= 2.122978D+01

 Vector   58  Occ=0.000000D+00  E= 6.181838D+01

 Vector   59  Occ=0.000000D+00  E= 6.210790D+01

 Vector   60  Occ=0.000000D+00  E= 1.171581D+02

     Multipole analysis of the density
     ---------------------------------

     L   x y z        total         alpha         beta         nuclear
     -   - - -        -----         -----         ----         -------
     0   0 0 0      2.000000    -12.000000    -11.000000     25.000000

     1   1 0 0     -0.517645     -0.345521     -0.172125     -0.000000
     1   0 1 0      0.140876      0.094727      0.046149      0.000000
     1   0 0 1      0.722219      0.484256      0.237963     -0.000000

     2   2 0 0      1.244441    -38.605749    -34.225536     74.075725
     2   1 1 0      4.235068    -14.133093    -13.122834     31.490994
     2   1 0 1      2.808319    -15.290179    -15.462135     33.560633
     2   0 2 0     -8.362721    -16.199204    -15.180043     23.016526
     2   0 1 1      2.452303    -11.072034    -10.117430     23.641767

 Total times  cpu:       15.3s     wall:       16.5s
