 Output coordinates in angstroms (scale by  1.889725989 to convert to a.u.)

  No.       Tag          Charge          X              Y              Z
 ---- ---------------- ---------- -------------- -------------- --------------
    1 C                    6.0000     0.71660205    -0.58009068    -0.59776624
    2 C                    6.0000     1.86489511     0.33383747    -0.63267930
    3 H                    1.0000     2.64666937    -0.04725526     0.05598677
    4 H                    1.0000     1.59239555     1.33370245    -0.27712357
    5 O                    8.0000     0.66562999    -1.69865649    -1.28349537
    6 H                    1.0000     2.31750676     0.40021620    -1.63324740
    7 C                    6.0000    -0.50592963    -0.36905015     0.23147765
    8 Cl                  17.0000    -1.37446545     0.95610579    -0.76515152
    9 Cl                  17.0000    -0.07254942     0.14545552     1.92705226
   10 H                    1.0000    -1.15845905    -1.24181695     0.26601819
   11 H                    1.0000     1.42269521    -1.89031672    -1.90217632

         Total DFT energy =    -1111.479625465690

                    DFT Final Alpha Molecular Orbital Analysis
                    ------------------------------------------

 Vector    1  Occ=1.000000D+00  E=-1.011552D+02

 Vector   40  Occ=0.000000D+00  E=-2.632916D-01

 Vector   41  Occ=0.000000D+00  E=-2.439141D-01

 Vector   42  Occ=0.000000D+00  E=-2.180164D-01

 Vector   43  Occ=0.000000D+00  E=-1.965183D-01

 Vector   44  Occ=0.000000D+00  E=-1.893516D-01

 Vector   45  Occ=0.000000D+00  E=-1.352767D-01

 Vector   46  Occ=0.000000D+00  E=-1.345404D-01

 Vector   47  Occ=0.000000D+00  E=-1.215775D-01

 Vector   48  Occ=0.000000D+00  E=-1.096634D-01

 Vector   49  Occ=0.000000D+00  E=-8.967888D-02

 Vector   50  Occ=0.000000D+00  E=-7.886410D-02

 Vector   51  Occ=0.000000D+00  E=-6.545329D-02

 Vector   52  Occ=0.000000D+00  E=-3.144931D-02

 Vector   53  Occ=0.000000D+00  E=-1.767997D-02

 Vector   54  Occ=0.000000D+00  E=-1.111039D-02

 Vector   55  Occ=0.000000D+00  E= 4.436876D-03

 Vector   56  Occ=0.000000D+00  E= 1.678626D-02

 Vector   57  Occ=0.000000D+00  E= 4.427020D-02

 Vector   58  Occ=0.000000D+00  E= 6.311198D-02

 Vector   59  Occ=0.000000D+00  E= 6.622366D-02

 Vector   60  Occ=0.000000D+00  E= 7.660144D-02

 Vector   61  Occ=0.000000D+00  E= 8.605616D-02

 Vector   62  Occ=0.000000D+00  E= 9.187112D-02

 Vector   63  Occ=0.000000D+00  E= 1.025958D-01

 Vector   64  Occ=0.000000D+00  E= 1.287344D-01

 Vector   65  Occ=0.000000D+00  E= 1.356460D-01

 Vector   66  Occ=0.000000D+00  E= 1.672378D-01

 Vector   67  Occ=0.000000D+00  E= 2.263415D-01

 Vector   68  Occ=0.000000D+00  E= 3.042171D-01

 Vector   69  Occ=0.000000D+00  E= 3.449841D-01

 Vector   70  Occ=0.000000D+00  E= 5.053069D-01

 Vector   71  Occ=0.000000D+00  E= 5.668468D-01

 Vector   72  Occ=0.000000D+00  E= 7.037234D-01

 Vector   73  Occ=0.000000D+00  E= 8.803202D-01

 Vector   74  Occ=0.000000D+00  E= 8.839967D-01

 Vector   75  Occ=0.000000D+00  E= 9.446047D-01

 Vector   76  Occ=0.000000D+00  E= 1.007148D+00

 Vector   77  Occ=0.000000D+00  E= 1.070356D+00

 Vector   78  Occ=0.000000D+00  E= 1.089248D+00

 Vector   79  Occ=0.000000D+00  E= 1.102810D+00

 Vector   80  Occ=0.000000D+00  E= 1.231596D+00

 Vector   81  Occ=0.000000D+00  E= 1.258585D+00

 Vector   82  Occ=0.000000D+00  E= 1.639242D+00

 Vector   83  Occ=0.000000D+00  E= 1.715135D+00

 Vector   84  Occ=0.000000D+00  E= 1.744320D+00

 Vector   85  Occ=0.000000D+00  E= 1.803354D+00

 Vector   86  Occ=0.000000D+00  E= 1.846482D+00

 Vector   87  Occ=0.000000D+00  E= 1.852514D+00

 Vector   88  Occ=0.000000D+00  E= 1.867908D+00

 Vector   89  Occ=0.000000D+00  E= 1.881972D+00

 Vector   90  Occ=0.000000D+00  E= 1.921212D+00

 Vector   91  Occ=0.000000D+00  E= 1.936408D+00

 Vector   92  Occ=0.000000D+00  E= 1.961066D+00

 Vector   93  Occ=0.000000D+00  E= 2.052608D+00

 Vector   94  Occ=0.000000D+00  E= 2.075975D+00

 Vector   95  Occ=0.000000D+00  E= 2.140575D+00

 Vector   96  Occ=0.000000D+00  E= 2.219462D+00

 Vector   97  Occ=0.000000D+00  E= 2.338755D+00

 Vector   98  Occ=0.000000D+00  E= 2.581016D+00

 Vector   99  Occ=0.000000D+00  E= 4.154819D+00

 Vector  100  Occ=0.000000D+00  E= 8.544628D+00

 Vector  101  Occ=0.000000D+00  E= 8.577694D+00

 Vector  102  Occ=0.000000D+00  E= 1.107958D+01

 Vector  103  Occ=0.000000D+00  E= 1.118924D+01

 Vector  104  Occ=0.000000D+00  E= 1.129196D+01

 Vector  105  Occ=0.000000D+00  E= 2.142737D+01

 Vector  106  Occ=0.000000D+00  E= 4.026844D+01

 Vector  107  Occ=0.000000D+00  E= 4.027825D+01

 Vector  108  Occ=0.000000D+00  E= 4.027914D+01

 Vector  109  Occ=0.000000D+00  E= 4.028623D+01

 Vector  110  Occ=0.000000D+00  E= 4.028887D+01

 Vector  111  Occ=0.000000D+00  E= 4.031446D+01

 Vector  112  Occ=0.000000D+00  E= 6.200450D+01

 Vector  113  Occ=0.000000D+00  E= 6.212268D+01

 Vector  114  Occ=0.000000D+00  E= 6.224044D+01

 Vector  115  Occ=0.000000D+00  E= 1.173643D+02

 Vector  116  Occ=0.000000D+00  E= 1.225617D+02

 Vector  117  Occ=0.000000D+00  E= 1.226030D+02

 Vector  118  Occ=0.000000D+00  E= 8.991092D+02

 Vector  119  Occ=0.000000D+00  E= 8.991554D+02

     Multipole analysis of the density
     ---------------------------------

     L   x y z        total         alpha         beta         nuclear
     -   - - -        -----         -----         ----         -------
     0   0 0 0      2.000000    -32.000000    -31.000000     65.000000

     1   1 0 0      1.494158      1.385410      0.108748      0.000000
     1   0 1 0     -0.727569     -0.755634      0.028065      0.000000
     1   0 0 1     -0.930289     -0.929863     -0.000426     -0.000000

     2   2 0 0    -16.697018   -152.858057   -147.777982    283.939021
     2   1 1 0     -3.731409     47.948125     46.625015    -98.304549
     2   1 0 1     -5.493448     12.400553     13.451330    -31.345332
     2   0 2 0    -25.217181   -102.589349    -99.556124    176.928292
     2   0 1 1      3.044462    -20.030657    -20.886182     43.961301

 Total times  cpu:     1027.0s     wall:     1052.8s
