 Output coordinates in angstroms (scale by  1.889725989 to convert to a.u.)

  No.       Tag          Charge          X              Y              Z
 ---- ---------------- ---------- -------------- -------------- --------------
    1 C                    6.0000    -1.14347450     0.49906817     0.94902169
    2 C                    6.0000     0.02912880     0.06129181     0.13478693
    3 C                    6.0000     1.35978801    -0.07852520     0.75767517
    4 O                    8.0000    -0.08938703    -0.20066945    -1.12777733
    5 Cl                  17.0000    -2.64264148     0.76118068    -0.10941136
    6 H                    1.0000    -0.92905273     1.43480338     1.48402615
    7 H                    1.0000    -1.39350414    -0.27496750     1.69167939
    8 Cl                  17.0000     2.61793278    -0.92226792    -0.26862766
    9 H                    1.0000     1.27651558    -0.60046447     1.72335449
   10 H                    1.0000     1.73871347     0.93725603     0.98112606
   11 H                    1.0000    -1.03018208    -0.04379731    -1.48020675

         Total DFT energy =    -1111.495266128070

                    DFT Final Alpha Molecular Orbital Analysis
                    ------------------------------------------

 Vector    1  Occ=1.000000D+00  E=-1.011353D+02

 Vector   40  Occ=0.000000D+00  E=-2.700063D-01

 Vector   41  Occ=0.000000D+00  E=-2.590649D-01

 Vector   42  Occ=0.000000D+00  E=-2.090583D-01

 Vector   43  Occ=0.000000D+00  E=-1.921830D-01

 Vector   44  Occ=0.000000D+00  E=-1.705108D-01

 Vector   45  Occ=0.000000D+00  E=-1.646366D-01

 Vector   46  Occ=0.000000D+00  E=-1.311526D-01

 Vector   47  Occ=0.000000D+00  E=-1.229083D-01

 Vector   48  Occ=0.000000D+00  E=-1.107129D-01

 Vector   49  Occ=0.000000D+00  E=-9.373604D-02

 Vector   50  Occ=0.000000D+00  E=-7.552924D-02

 Vector   51  Occ=0.000000D+00  E=-5.632432D-02

 Vector   52  Occ=0.000000D+00  E=-1.897081D-02

 Vector   53  Occ=0.000000D+00  E=-1.378121D-02

 Vector   54  Occ=0.000000D+00  E=-3.481184D-03

 Vector   55  Occ=0.000000D+00  E= 1.585189D-02

 Vector   56  Occ=0.000000D+00  E= 2.175534D-02

 Vector   57  Occ=0.000000D+00  E= 4.125644D-02

 Vector   58  Occ=0.000000D+00  E= 5.128980D-02

 Vector   59  Occ=0.000000D+00  E= 5.559663D-02

 Vector   60  Occ=0.000000D+00  E= 6.440578D-02

 Vector   61  Occ=0.000000D+00  E= 7.134657D-02

 Vector   62  Occ=0.000000D+00  E= 8.012577D-02

 Vector   63  Occ=0.000000D+00  E= 1.140360D-01

 Vector   64  Occ=0.000000D+00  E= 1.174046D-01

 Vector   65  Occ=0.000000D+00  E= 1.375496D-01

 Vector   66  Occ=0.000000D+00  E= 1.901465D-01

 Vector   67  Occ=0.000000D+00  E= 2.050717D-01

 Vector   68  Occ=0.000000D+00  E= 2.912355D-01

 Vector   69  Occ=0.000000D+00  E= 3.990270D-01

 Vector   70  Occ=0.000000D+00  E= 5.629534D-01

 Vector   71  Occ=0.000000D+00  E= 5.740571D-01

 Vector   72  Occ=0.000000D+00  E= 7.057566D-01

 Vector   73  Occ=0.000000D+00  E= 8.430925D-01

 Vector   74  Occ=0.000000D+00  E= 8.890910D-01

 Vector   75  Occ=0.000000D+00  E= 9.522112D-01

 Vector   76  Occ=0.000000D+00  E= 9.815895D-01

 Vector   77  Occ=0.000000D+00  E= 1.019274D+00

 Vector   78  Occ=0.000000D+00  E= 1.049029D+00

 Vector   79  Occ=0.000000D+00  E= 1.107715D+00

 Vector   80  Occ=0.000000D+00  E= 1.183064D+00

 Vector   81  Occ=0.000000D+00  E= 1.289579D+00

 Vector   82  Occ=0.000000D+00  E= 1.603928D+00

 Vector   83  Occ=0.000000D+00  E= 1.692367D+00

 Vector   84  Occ=0.000000D+00  E= 1.758441D+00

 Vector   85  Occ=0.000000D+00  E= 1.830429D+00

 Vector   86  Occ=0.000000D+00  E= 1.844319D+00

 Vector   87  Occ=0.000000D+00  E= 1.876504D+00

 Vector   88  Occ=0.000000D+00  E= 1.904913D+00

 Vector   89  Occ=0.000000D+00  E= 1.923850D+00

 Vector   90  Occ=0.000000D+00  E= 1.927045D+00

 Vector   91  Occ=0.000000D+00  E= 1.943518D+00

 Vector   92  Occ=0.000000D+00  E= 1.948460D+00

 Vector   93  Occ=0.000000D+00  E= 2.002457D+00

 Vector   94  Occ=0.000000D+00  E= 2.080571D+00

 Vector   95  Occ=0.000000D+00  E= 2.180876D+00

 Vector   96  Occ=0.000000D+00  E= 2.298141D+00

 Vector   97  Occ=0.000000D+00  E= 2.346928D+00

 Vector   98  Occ=0.000000D+00  E= 2.541273D+00

 Vector   99  Occ=0.000000D+00  E= 4.160673D+00

 Vector  100  Occ=0.000000D+00  E= 8.568719D+00

 Vector  101  Occ=0.000000D+00  E= 8.587590D+00

 Vector  102  Occ=0.000000D+00  E= 1.106992D+01

 Vector  103  Occ=0.000000D+00  E= 1.122826D+01

 Vector  104  Occ=0.000000D+00  E= 1.125437D+01

 Vector  105  Occ=0.000000D+00  E= 2.143595D+01

 Vector  106  Occ=0.000000D+00  E= 4.029353D+01

 Vector  107  Occ=0.000000D+00  E= 4.030465D+01

 Vector  108  Occ=0.000000D+00  E= 4.030522D+01

 Vector  109  Occ=0.000000D+00  E= 4.031362D+01

 Vector  110  Occ=0.000000D+00  E= 4.031995D+01

 Vector  111  Occ=0.000000D+00  E= 4.032734D+01

 Vector  112  Occ=0.000000D+00  E= 6.200031D+01

 Vector  113  Occ=0.000000D+00  E= 6.216935D+01

 Vector  114  Occ=0.000000D+00  E= 6.219333D+01

 Vector  115  Occ=0.000000D+00  E= 1.173730D+02

 Vector  116  Occ=0.000000D+00  E= 1.225910D+02

 Vector  117  Occ=0.000000D+00  E= 1.226078D+02

 Vector  118  Occ=0.000000D+00  E= 8.991384D+02

 Vector  119  Occ=0.000000D+00  E= 8.991580D+02

     Multipole analysis of the density
     ---------------------------------

     L   x y z        total         alpha         beta         nuclear
     -   - - -        -----         -----         ----         -------
     0   0 0 0      2.000000    -32.000000    -31.000000     65.000000

     1   1 0 0      0.052897     -0.458248      0.511146      0.000000
     1   0 1 0      0.346606      0.367039     -0.020432     -0.000000
     1   0 0 1      1.242508      0.686933      0.555574      0.000000

     2   2 0 0     -7.581084   -485.071228   -460.836939    938.327082
     2   1 1 0     -5.859742    142.061955    134.883245   -282.804942
     2   1 0 1      1.776418     10.054935      9.022481    -17.300998
     2   0 2 0    -27.971080    -68.987363    -64.547415    105.563698
     2   0 1 1      1.021991    -15.178690    -15.062005     31.262686

 Total times  cpu:      111.4s     wall:      114.3s
