 Output coordinates in angstroms (scale by  1.889725989 to convert to a.u.)

  No.       Tag          Charge          X              Y              Z
 ---- ---------------- ---------- -------------- -------------- --------------
    1 C                    6.0000    -2.44154300     0.89099523    -0.22343108
    2 C                    6.0000    -1.28251486     0.21105691    -0.96689396
    3 H                    1.0000    -2.60533723     0.43851757     0.76339724
    4 H                    1.0000    -3.36527459     0.77098648    -0.80321725
    5 H                    1.0000    -2.26658883     1.96817014    -0.09131876
    6 C                    6.0000     0.04875152     0.38936861    -0.27573296
    7 H                    1.0000    -1.16799818     0.66462487    -1.97056978
    8 H                    1.0000    -1.48808004    -0.85931869    -1.12242782
    9 C                    6.0000     1.17664902    -0.45232596    -0.71435463
   10 O                    8.0000     2.42794735    -0.08671523    -0.80302970
   11 H                    1.0000     1.01173518    -1.48224511    -1.03717091
   12 Cl                  17.0000     0.14600546    -0.54814003     1.43260361
   13 H                    1.0000     0.30565485     1.42966359    -0.04126591
   14 H                    1.0000     2.66216094     0.84713501    -0.54497489

         Total DFT energy =     -691.318330693749

                    DFT Final Alpha Molecular Orbital Analysis
                    ------------------------------------------

 Vector    1  Occ=1.000000D+00  E=-1.011469D+02

 Vector   42  Occ=0.000000D+00  E=-1.615803D-01

 Vector   43  Occ=0.000000D+00  E=-1.574932D-01

 Vector   44  Occ=0.000000D+00  E=-1.409221D-01

 Vector   45  Occ=0.000000D+00  E=-1.105317D-01

 Vector   46  Occ=0.000000D+00  E=-1.009998D-01

 Vector   47  Occ=0.000000D+00  E=-9.656155D-02

 Vector   48  Occ=0.000000D+00  E=-7.726437D-02

 Vector   49  Occ=0.000000D+00  E=-6.570181D-02

 Vector   50  Occ=0.000000D+00  E=-5.696748D-02

 Vector   51  Occ=0.000000D+00  E=-3.880785D-02

 Vector   52  Occ=0.000000D+00  E=-2.682647D-02

 Vector   53  Occ=0.000000D+00  E=-1.356464D-02

 Vector   54  Occ=0.000000D+00  E= 3.090755D-02

 Vector   55  Occ=0.000000D+00  E= 3.791559D-02

 Vector   56  Occ=0.000000D+00  E= 4.527792D-02

 Vector   57  Occ=0.000000D+00  E= 5.251392D-02

 Vector   58  Occ=0.000000D+00  E= 5.387302D-02

 Vector   59  Occ=0.000000D+00  E= 8.984687D-02

 Vector   60  Occ=0.000000D+00  E= 9.663239D-02

 Vector   61  Occ=0.000000D+00  E= 1.055076D-01

 Vector   62  Occ=0.000000D+00  E= 1.191226D-01

 Vector   63  Occ=0.000000D+00  E= 1.235230D-01

 Vector   64  Occ=0.000000D+00  E= 1.353542D-01

 Vector   65  Occ=0.000000D+00  E= 1.597953D-01

 Vector   66  Occ=0.000000D+00  E= 1.627228D-01

 Vector   67  Occ=0.000000D+00  E= 1.778028D-01

 Vector   68  Occ=0.000000D+00  E= 1.993972D-01

 Vector   69  Occ=0.000000D+00  E= 2.465185D-01

 Vector   70  Occ=0.000000D+00  E= 3.421654D-01

 Vector   71  Occ=0.000000D+00  E= 3.570524D-01

 Vector   72  Occ=0.000000D+00  E= 3.664533D-01

 Vector   73  Occ=0.000000D+00  E= 5.317664D-01

 Vector   74  Occ=0.000000D+00  E= 7.681930D-01

 Vector   75  Occ=0.000000D+00  E= 8.789108D-01

 Vector   76  Occ=0.000000D+00  E= 9.011161D-01

 Vector   77  Occ=0.000000D+00  E= 9.795055D-01

 Vector   78  Occ=0.000000D+00  E= 9.944697D-01

 Vector   79  Occ=0.000000D+00  E= 1.022814D+00

 Vector   80  Occ=0.000000D+00  E= 1.079978D+00

 Vector   81  Occ=0.000000D+00  E= 1.090381D+00

 Vector   82  Occ=0.000000D+00  E= 1.156407D+00

 Vector   83  Occ=0.000000D+00  E= 1.188038D+00

 Vector   84  Occ=0.000000D+00  E= 1.208360D+00

 Vector   85  Occ=0.000000D+00  E= 1.288738D+00

 Vector   86  Occ=0.000000D+00  E= 1.401525D+00

 Vector   87  Occ=0.000000D+00  E= 1.636099D+00

 Vector   88  Occ=0.000000D+00  E= 1.731700D+00

 Vector   89  Occ=0.000000D+00  E= 1.758033D+00

 Vector   90  Occ=0.000000D+00  E= 1.821931D+00

 Vector   91  Occ=0.000000D+00  E= 1.847830D+00

 Vector   92  Occ=0.000000D+00  E= 1.874864D+00

 Vector   93  Occ=0.000000D+00  E= 1.897068D+00

 Vector   94  Occ=0.000000D+00  E= 1.932862D+00

 Vector   95  Occ=0.000000D+00  E= 1.960760D+00

 Vector   96  Occ=0.000000D+00  E= 1.980819D+00

 Vector   97  Occ=0.000000D+00  E= 2.013509D+00

 Vector   98  Occ=0.000000D+00  E= 2.065193D+00

 Vector   99  Occ=0.000000D+00  E= 2.123128D+00

 Vector  100  Occ=0.000000D+00  E= 2.128629D+00

 Vector  101  Occ=0.000000D+00  E= 2.272959D+00

 Vector  102  Occ=0.000000D+00  E= 2.313809D+00

 Vector  103  Occ=0.000000D+00  E= 2.422800D+00

 Vector  104  Occ=0.000000D+00  E= 2.549665D+00

 Vector  105  Occ=0.000000D+00  E= 4.184758D+00

 Vector  106  Occ=0.000000D+00  E= 8.549392D+00

 Vector  107  Occ=0.000000D+00  E= 1.109299D+01

 Vector  108  Occ=0.000000D+00  E= 1.124792D+01

 Vector  109  Occ=0.000000D+00  E= 1.130262D+01

 Vector  110  Occ=0.000000D+00  E= 1.131710D+01

 Vector  111  Occ=0.000000D+00  E= 2.144760D+01

 Vector  112  Occ=0.000000D+00  E= 4.028704D+01

 Vector  113  Occ=0.000000D+00  E= 4.029928D+01

 Vector  114  Occ=0.000000D+00  E= 4.030561D+01

 Vector  115  Occ=0.000000D+00  E= 6.202737D+01

 Vector  116  Occ=0.000000D+00  E= 6.218445D+01

 Vector  117  Occ=0.000000D+00  E= 6.224320D+01

 Vector  118  Occ=0.000000D+00  E= 6.226762D+01

 Vector  119  Occ=0.000000D+00  E= 1.173831D+02

 Vector  120  Occ=0.000000D+00  E= 1.225730D+02

 Vector  121  Occ=0.000000D+00  E= 8.991203D+02

     Multipole analysis of the density
     ---------------------------------

     L   x y z        total         alpha         beta         nuclear
     -   - - -        -----         -----         ----         -------
     0   0 0 0      2.000000    -28.000000    -27.000000     57.000000

     1   1 0 0     -0.358556      0.699598     -1.058155      0.000000
     1   0 1 0      1.038073      0.392600      0.645472      0.000000
     1   0 0 1     -0.973291     -0.902977     -0.070314      0.000000

     2   2 0 0     -5.911061   -251.889971   -241.514146    487.493056
     2   1 1 0     -0.882514     49.735665     46.885969    -97.504149
     2   1 0 1      0.632014      6.832593      8.341165    -14.541744
     2   0 2 0    -21.230579    -53.881213    -49.965480     82.616114
     2   0 1 1     -1.465958     24.447923     23.043661    -48.957542

 Total times  cpu:      590.6s     wall:      603.1s
