 Output coordinates in angstroms (scale by  1.889725989 to convert to a.u.)

  No.       Tag          Charge          X              Y              Z
 ---- ---------------- ---------- -------------- -------------- --------------
    1 C                    6.0000     0.47946527     0.07726535     0.88294437
    2 C                    6.0000     1.30695751    -0.39000369    -0.23179355
    3 O                    8.0000     0.87890589    -0.55339524    -1.43353836
    4 H                    1.0000     2.36594219    -0.63215313    -0.09628017
    5 Cl                  17.0000    -1.25933833     0.40827247     0.36531667
    6 H                    1.0000     0.91523325     0.99842931     1.31226376
    7 H                    1.0000     0.48317776    -0.67536312     1.69308480
    8 H                    1.0000    -0.10538533    -0.32795308    -1.55804969

         Total DFT energy =     -612.729380588906

                    DFT Final Alpha Molecular Orbital Analysis
                    ------------------------------------------

 Vector    1  Occ=1.000000D+00  E=-1.012833D+02

 Vector   79  Occ=0.000000D+00  E= 8.989664D+02

 Vector    1  Occ=1.000000D+00  E=-1.012778D+02

 Vector    2  Occ=1.000000D+00  E=-1.934125D+01

 Vector    3  Occ=1.000000D+00  E=-1.051668D+01

 Vector    4  Occ=1.000000D+00  E=-1.047801D+01

 Vector    5  Occ=1.000000D+00  E=-9.775436D+00

 Vector    6  Occ=1.000000D+00  E=-7.598821D+00

 Vector    7  Occ=1.000000D+00  E=-7.595549D+00

 Vector    8  Occ=1.000000D+00  E=-7.584963D+00

 Vector    9  Occ=1.000000D+00  E=-1.539116D+00

 Vector   10  Occ=1.000000D+00  E=-1.326116D+00

 Vector   11  Occ=1.000000D+00  E=-1.192638D+00

 Vector   12  Occ=1.000000D+00  E=-1.089183D+00

 Vector   13  Occ=1.000000D+00  E=-9.764936D-01

 Vector   14  Occ=1.000000D+00  E=-9.484416D-01

 Vector   15  Occ=1.000000D+00  E=-9.261128D-01

 Vector   16  Occ=1.000000D+00  E=-8.779466D-01

 Vector   17  Occ=1.000000D+00  E=-8.484584D-01

 Vector   18  Occ=1.000000D+00  E=-8.007798D-01

 Vector   19  Occ=1.000000D+00  E=-7.963261D-01

 Vector   20  Occ=0.000000D+00  E=-7.785885D-01

 Vector   21  Occ=0.000000D+00  E=-5.958113D-01

 Vector   22  Occ=0.000000D+00  E=-5.382119D-01

 Vector   23  Occ=0.000000D+00  E=-4.182725D-01

 Vector   24  Occ=0.000000D+00  E=-3.642773D-01

 Vector   25  Occ=0.000000D+00  E=-3.248176D-01

 Vector   26  Occ=0.000000D+00  E=-3.224625D-01

 Vector   27  Occ=0.000000D+00  E=-2.722140D-01

 Vector   28  Occ=0.000000D+00  E=-2.498691D-01

 Vector   29  Occ=0.000000D+00  E=-2.125877D-01

 Vector   30  Occ=0.000000D+00  E=-2.097425D-01

 Vector   31  Occ=0.000000D+00  E=-1.913946D-01

 Vector   32  Occ=0.000000D+00  E=-1.449299D-01

 Vector   33  Occ=0.000000D+00  E=-1.142484D-01

 Vector   34  Occ=0.000000D+00  E=-1.114689D-01

 Vector   35  Occ=0.000000D+00  E=-7.583960D-02

 Vector   36  Occ=0.000000D+00  E=-6.145164D-02

 Vector   37  Occ=0.000000D+00  E=-5.045381D-02

 Vector   38  Occ=0.000000D+00  E=-4.067233D-02

 Vector   39  Occ=0.000000D+00  E=-7.602628D-03

 Vector   40  Occ=0.000000D+00  E= 1.200327D-02

 Vector   41  Occ=0.000000D+00  E= 6.199334D-02

 Vector   42  Occ=0.000000D+00  E= 6.845131D-02

 Vector   43  Occ=0.000000D+00  E= 8.032918D-02

 Vector   44  Occ=0.000000D+00  E= 1.326014D-01

 Vector   45  Occ=0.000000D+00  E= 1.846549D-01

 Vector   46  Occ=0.000000D+00  E= 2.942990D-01

 Vector   47  Occ=0.000000D+00  E= 4.440882D-01

 Vector   48  Occ=0.000000D+00  E= 6.244387D-01

 Vector   49  Occ=0.000000D+00  E= 8.157710D-01

 Vector   50  Occ=0.000000D+00  E= 8.481715D-01

 Vector   51  Occ=0.000000D+00  E= 8.663647D-01

 Vector   52  Occ=0.000000D+00  E= 9.714128D-01

 Vector   53  Occ=0.000000D+00  E= 1.029331D+00

 Vector   54  Occ=0.000000D+00  E= 1.092167D+00

 Vector   55  Occ=0.000000D+00  E= 1.550279D+00

 Vector   56  Occ=0.000000D+00  E= 1.615574D+00

 Vector   57  Occ=0.000000D+00  E= 1.734542D+00

 Vector   58  Occ=0.000000D+00  E= 1.740433D+00

 Vector   59  Occ=0.000000D+00  E= 1.794665D+00

 Vector   60  Occ=0.000000D+00  E= 1.811521D+00

 Vector   61  Occ=0.000000D+00  E= 1.845325D+00

 Vector   62  Occ=0.000000D+00  E= 1.949433D+00

 Vector   63  Occ=0.000000D+00  E= 1.988913D+00

 Vector   64  Occ=0.000000D+00  E= 2.104347D+00

 Vector   65  Occ=0.000000D+00  E= 2.193831D+00

 Vector   66  Occ=0.000000D+00  E= 2.453134D+00

 Vector   67  Occ=0.000000D+00  E= 4.062760D+00

 Vector   68  Occ=0.000000D+00  E= 8.409238D+00

 Vector   69  Occ=0.000000D+00  E= 1.096683D+01

 Vector   70  Occ=0.000000D+00  E= 1.113175D+01

 Vector   71  Occ=0.000000D+00  E= 2.133498D+01

 Vector   72  Occ=0.000000D+00  E= 4.014785D+01

 Vector   73  Occ=0.000000D+00  E= 4.016718D+01

 Vector   74  Occ=0.000000D+00  E= 4.017358D+01

 Vector   75  Occ=0.000000D+00  E= 6.189839D+01

 Vector   76  Occ=0.000000D+00  E= 6.206977D+01

 Vector   77  Occ=0.000000D+00  E= 1.172690D+02

 Vector   78  Occ=0.000000D+00  E= 1.224264D+02

 Vector   79  Occ=0.000000D+00  E= 8.989698D+02

     Multipole analysis of the density
     ---------------------------------

     L   x y z        total         alpha         beta         nuclear
     -   - - -        -----         -----         ----         -------
     0   0 0 0      2.000000    -20.000000    -19.000000     41.000000

     1   1 0 0      0.718290      1.304023     -0.585734      0.000000
     1   0 1 0      0.001648     -0.338915      0.340563     -0.000000
     1   0 0 1      0.822173     -0.009940      0.832114      0.000000

     2   2 0 0     -7.788047    -98.747483    -92.767239    183.726675
     2   1 1 0     -2.080104     28.767455     27.508262    -58.355822
     2   1 0 1      1.618373     28.553791     27.425696    -54.361115
     2   0 2 0    -16.612491    -24.177480    -21.689968     29.254957
     2   0 1 1      0.565879    -18.735851    -18.452811     37.754541

 Total times  cpu:        9.5s     wall:       10.0s
