 Output coordinates in angstroms (scale by  1.889725989 to convert to a.u.)

  No.       Tag          Charge          X              Y              Z
 ---- ---------------- ---------- -------------- -------------- --------------
    1 C                    6.0000     0.28965743     0.05978961     0.57253711
    2 O                    8.0000    -0.20171320    -0.08879637    -0.59455055
    3 H                    1.0000     1.34803382    -0.20291295     0.66639779
    4 H                    1.0000    -0.30702410     0.42478693     1.42032677
    5 H                    1.0000    -1.16524874     0.12975938    -0.76554278

         Total DFT energy =     -113.865498854181

                    DFT Final Alpha Molecular Orbital Analysis
                    ------------------------------------------

 Vector    1  Occ=1.000000D+00  E=-1.960360D+01

 Vector    2  Occ=1.000000D+00  E=-1.072137D+01

 Vector    3  Occ=1.000000D+00  E=-1.756383D+00

 Vector    4  Occ=1.000000D+00  E=-1.334834D+00

 Vector    5  Occ=1.000000D+00  E=-1.207630D+00

 Vector    6  Occ=1.000000D+00  E=-1.140935D+00

 Vector    7  Occ=1.000000D+00  E=-1.074951D+00

 Vector    8  Occ=1.000000D+00  E=-1.023929D+00

 Vector    9  Occ=0.000000D+00  E=-7.848730D-01

 Vector   10  Occ=0.000000D+00  E=-5.473199D-01

 Vector   11  Occ=0.000000D+00  E=-4.747869D-01

 Vector   12  Occ=0.000000D+00  E=-4.397832D-01

 Vector   13  Occ=0.000000D+00  E=-3.856726D-01

 Vector   14  Occ=0.000000D+00  E=-2.829290D-01

 Vector   15  Occ=0.000000D+00  E=-2.702258D-01

 Vector   16  Occ=0.000000D+00  E=-2.560463D-01

 Vector   17  Occ=0.000000D+00  E=-2.434487D-01

 Vector   18  Occ=0.000000D+00  E=-1.697508D-01

 Vector   19  Occ=0.000000D+00  E=-9.628172D-02

 Vector   20  Occ=0.000000D+00  E=-6.058497D-02

 Vector   21  Occ=0.000000D+00  E=-3.563964D-02

 Vector   22  Occ=0.000000D+00  E=-3.645730D-03

 Vector   23  Occ=0.000000D+00  E= 1.195949D-01

 Vector   24  Occ=0.000000D+00  E= 3.805866D-01

 Vector   25  Occ=0.000000D+00  E= 6.965677D-01

 Vector   26  Occ=0.000000D+00  E= 7.065729D-01

 Vector   27  Occ=0.000000D+00  E= 8.312646D-01

 Vector   28  Occ=0.000000D+00  E= 1.397595D+00

 Vector   29  Occ=0.000000D+00  E= 1.465446D+00

 Vector   30  Occ=0.000000D+00  E= 1.615427D+00

 Vector   31  Occ=0.000000D+00  E= 1.679804D+00

 Vector   32  Occ=0.000000D+00  E= 1.761165D+00

 Vector   33  Occ=0.000000D+00  E= 1.909634D+00

 Vector   34  Occ=0.000000D+00  E= 2.218334D+00

 Vector   35  Occ=0.000000D+00  E= 3.749581D+00

 Vector   36  Occ=0.000000D+00  E= 1.073378D+01

 Vector   37  Occ=0.000000D+00  E= 2.099523D+01

 Vector   38  Occ=0.000000D+00  E= 6.165767D+01

 Vector   39  Occ=0.000000D+00  E= 1.169264D+02

 Vector    1  Occ=1.000000D+00  E=-1.958889D+01

 Vector    2  Occ=1.000000D+00  E=-1.071859D+01

 Vector    3  Occ=1.000000D+00  E=-1.732900D+00

 Vector    4  Occ=1.000000D+00  E=-1.316467D+00

 Vector    5  Occ=1.000000D+00  E=-1.175660D+00

 Vector    6  Occ=1.000000D+00  E=-1.103349D+00

 Vector    7  Occ=1.000000D+00  E=-1.059764D+00

 Vector    8  Occ=0.000000D+00  E=-9.632909D-01

 Vector    9  Occ=0.000000D+00  E=-7.788394D-01

 Vector   10  Occ=0.000000D+00  E=-5.329341D-01

 Vector   11  Occ=0.000000D+00  E=-4.527781D-01

 Vector   12  Occ=0.000000D+00  E=-4.254514D-01

 Vector   13  Occ=0.000000D+00  E=-3.631337D-01

 Vector   14  Occ=0.000000D+00  E=-2.815120D-01

 Vector   15  Occ=0.000000D+00  E=-2.605940D-01

 Vector   16  Occ=0.000000D+00  E=-2.426082D-01

 Vector   17  Occ=0.000000D+00  E=-2.340211D-01

 Vector   18  Occ=0.000000D+00  E=-1.575402D-01

 Vector   19  Occ=0.000000D+00  E=-8.972075D-02

 Vector   20  Occ=0.000000D+00  E=-4.171218D-02

 Vector   21  Occ=0.000000D+00  E=-2.597192D-02

 Vector   22  Occ=0.000000D+00  E= 6.050265D-03

 Vector   23  Occ=0.000000D+00  E= 1.340314D-01

 Vector   24  Occ=0.000000D+00  E= 3.940591D-01

 Vector   25  Occ=0.000000D+00  E= 6.971958D-01

 Vector   26  Occ=0.000000D+00  E= 7.108709D-01

 Vector   27  Occ=0.000000D+00  E= 8.493915D-01

 Vector   28  Occ=0.000000D+00  E= 1.421337D+00

 Vector   29  Occ=0.000000D+00  E= 1.497710D+00

 Vector   30  Occ=0.000000D+00  E= 1.655992D+00

 Vector   31  Occ=0.000000D+00  E= 1.696349D+00

 Vector   32  Occ=0.000000D+00  E= 1.776553D+00

 Vector   33  Occ=0.000000D+00  E= 1.952947D+00

 Vector   34  Occ=0.000000D+00  E= 2.241039D+00

 Vector   35  Occ=0.000000D+00  E= 3.783413D+00

 Vector   36  Occ=0.000000D+00  E= 1.073936D+01

 Vector   37  Occ=0.000000D+00  E= 2.102466D+01

 Vector   38  Occ=0.000000D+00  E= 6.166086D+01

 Vector   39  Occ=0.000000D+00  E= 1.169444D+02

     Multipole analysis of the density
     ---------------------------------

     L   x y z        total         alpha         beta         nuclear
     -   - - -        -----         -----         ----         -------
     0   0 0 0      2.000000     -8.000000     -7.000000     17.000000

     1   1 0 0     -0.323059     -0.229248     -0.093811      0.000000
     1   0 1 0      0.318119      0.190749      0.127370     -0.000000
     1   0 0 1      0.959439      0.535508      0.423930      0.000000

     2   2 0 0     -0.891536     -8.565818     -6.960575     14.634857
     2   1 1 0     -0.958108      0.207476     -0.065864     -1.099720
     2   1 0 1      2.673982     -4.724885     -4.416955     11.815821
     2   0 2 0     -6.435145     -4.060858     -3.527677      1.153390
     2   0 1 1      0.586007     -1.783923     -1.188712      3.558641

 Total times  cpu:        0.7s     wall:        1.0s
