 Output coordinates in angstroms (scale by  1.889725989 to convert to a.u.)

  No.       Tag          Charge          X              Y              Z
 ---- ---------------- ---------- -------------- -------------- --------------
    1 C                    6.0000    -0.00949886     0.10962454    -0.02487650
    2 C                    6.0000     0.09858448    -0.92819800    -1.09219515
    3 O                    8.0000     0.18731219    -2.19537741    -0.88393372
    4 H                    1.0000     0.10625835    -0.62513527    -2.14140898
    5 Cl                  17.0000    -1.59681561     0.96317072    -0.40762476
    6 Cl                  17.0000    -0.00781754    -0.63190099     1.65610757
    7 Cl                  17.0000     1.46819341     1.17366431    -0.31734375
    8 H                    1.0000     0.18020622    -2.48428363     0.08594459

         Total DFT energy =    -1531.576325061489

                    DFT Final Alpha Molecular Orbital Analysis
                    ------------------------------------------

 Vector    1  Occ=1.000000D+00  E=-1.011737D+02

 Vector   38  Occ=0.000000D+00  E=-5.223802D-01

 Vector   39  Occ=0.000000D+00  E=-4.844666D-01

 Vector   40  Occ=0.000000D+00  E=-4.504954D-01

 Vector   41  Occ=0.000000D+00  E=-3.866382D-01

 Vector   42  Occ=0.000000D+00  E=-3.168830D-01

 Vector   43  Occ=0.000000D+00  E=-2.930662D-01

 Vector   44  Occ=0.000000D+00  E=-2.385940D-01

 Vector   45  Occ=0.000000D+00  E=-1.992196D-01

 Vector   46  Occ=0.000000D+00  E=-1.610437D-01

 Vector   47  Occ=0.000000D+00  E=-1.405884D-01

 Vector   48  Occ=0.000000D+00  E=-1.386541D-01

 Vector   49  Occ=0.000000D+00  E=-1.211132D-01

 Vector   50  Occ=0.000000D+00  E=-9.601052D-02

 Vector   51  Occ=0.000000D+00  E=-7.266540D-02

 Vector   52  Occ=0.000000D+00  E=-4.828935D-02

 Vector   53  Occ=0.000000D+00  E=-3.959758D-02

 Vector   54  Occ=0.000000D+00  E=-2.987800D-02

 Vector   55  Occ=0.000000D+00  E=-2.528201D-02

 Vector   56  Occ=0.000000D+00  E= 1.529283D-02

 Vector   57  Occ=0.000000D+00  E= 1.819024D-02

 Vector   58  Occ=0.000000D+00  E= 3.187502D-02

 Vector   59  Occ=0.000000D+00  E= 3.679141D-02

 Vector   60  Occ=0.000000D+00  E= 5.370719D-02

 Vector   61  Occ=0.000000D+00  E= 6.483523D-02

 Vector   62  Occ=0.000000D+00  E= 8.436702D-02

 Vector   63  Occ=0.000000D+00  E= 9.357154D-02

 Vector   64  Occ=0.000000D+00  E= 1.422717D-01

 Vector   65  Occ=0.000000D+00  E= 1.926128D-01

 Vector   66  Occ=0.000000D+00  E= 2.996015D-01

 Vector   67  Occ=0.000000D+00  E= 4.735703D-01

 Vector   68  Occ=0.000000D+00  E= 4.776274D-01

 Vector   69  Occ=0.000000D+00  E= 5.494351D-01

 Vector   70  Occ=0.000000D+00  E= 6.647374D-01

 Vector   71  Occ=0.000000D+00  E= 8.377567D-01

 Vector   72  Occ=0.000000D+00  E= 8.520612D-01

 Vector   73  Occ=0.000000D+00  E= 9.047984D-01

 Vector   74  Occ=0.000000D+00  E= 9.691421D-01

 Vector   75  Occ=0.000000D+00  E= 1.045866D+00

 Vector   76  Occ=0.000000D+00  E= 1.096288D+00

 Vector   77  Occ=0.000000D+00  E= 1.582046D+00

 Vector   78  Occ=0.000000D+00  E= 1.720213D+00

 Vector   79  Occ=0.000000D+00  E= 1.768785D+00

 Vector   80  Occ=0.000000D+00  E= 1.776737D+00

 Vector   81  Occ=0.000000D+00  E= 1.810411D+00

 Vector   82  Occ=0.000000D+00  E= 1.831830D+00

 Vector   83  Occ=0.000000D+00  E= 1.834438D+00

 Vector   84  Occ=0.000000D+00  E= 1.845867D+00

 Vector   85  Occ=0.000000D+00  E= 1.874552D+00

 Vector   86  Occ=0.000000D+00  E= 1.884825D+00

 Vector   87  Occ=0.000000D+00  E= 1.903455D+00

 Vector   88  Occ=0.000000D+00  E= 1.958320D+00

 Vector   89  Occ=0.000000D+00  E= 2.031394D+00

 Vector   90  Occ=0.000000D+00  E= 2.089973D+00

 Vector   91  Occ=0.000000D+00  E= 2.186841D+00

 Vector   92  Occ=0.000000D+00  E= 2.466423D+00

 Vector   93  Occ=0.000000D+00  E= 4.079360D+00

 Vector   94  Occ=0.000000D+00  E= 8.485500D+00

 Vector   95  Occ=0.000000D+00  E= 8.546622D+00

 Vector   96  Occ=0.000000D+00  E= 8.597487D+00

 Vector   97  Occ=0.000000D+00  E= 1.100098D+01

 Vector   98  Occ=0.000000D+00  E= 1.110960D+01

 Vector   99  Occ=0.000000D+00  E= 2.135380D+01

 Vector  100  Occ=0.000000D+00  E= 4.024445D+01

 Vector  101  Occ=0.000000D+00  E= 4.024646D+01

 Vector  102  Occ=0.000000D+00  E= 4.025578D+01

 Vector  103  Occ=0.000000D+00  E= 4.026038D+01

 Vector  104  Occ=0.000000D+00  E= 4.026247D+01

 Vector  105  Occ=0.000000D+00  E= 4.027254D+01

 Vector  106  Occ=0.000000D+00  E= 4.027279D+01

 Vector  107  Occ=0.000000D+00  E= 4.027815D+01

 Vector  108  Occ=0.000000D+00  E= 4.031257D+01

 Vector  109  Occ=0.000000D+00  E= 6.191842D+01

 Vector  110  Occ=0.000000D+00  E= 6.202767D+01

 Vector  111  Occ=0.000000D+00  E= 1.172876D+02

 Vector  112  Occ=0.000000D+00  E= 1.225362D+02

 Vector  113  Occ=0.000000D+00  E= 1.225613D+02

 Vector  114  Occ=0.000000D+00  E= 1.226064D+02

 Vector  115  Occ=0.000000D+00  E= 8.990825D+02

 Vector  116  Occ=0.000000D+00  E= 8.991116D+02

 Vector  117  Occ=0.000000D+00  E= 8.991613D+02

     Multipole analysis of the density
     ---------------------------------

     L   x y z        total         alpha         beta         nuclear
     -   - - -        -----         -----         ----         -------
     0   0 0 0      2.000000    -36.000000    -35.000000     73.000000

     1   1 0 0      0.087105      0.091060     -0.003955     -0.000000
     1   0 1 0     -0.989173     -1.051031      0.061858     -0.000000
     1   0 0 1     -0.587532     -0.542095     -0.045437      0.000000

     2   2 0 0    -27.671977   -161.159761   -153.541329    287.029113
     2   1 1 0     -0.223478      1.750292      2.052458     -4.026228
     2   1 0 1      0.201398     -1.362004     -1.091002      2.654403
     2   0 2 0    -23.744203   -186.061159   -181.710694    344.027650
     2   0 1 1     -2.982709     14.261461     11.612149    -28.856319

 Total times  cpu:        5.5s     wall:        5.9s
