 Output coordinates in angstroms (scale by  1.889725989 to convert to a.u.)

  No.       Tag          Charge          X              Y              Z
 ---- ---------------- ---------- -------------- -------------- --------------
    1 C                    6.0000    -0.66895166    -0.00000349     0.00000346
    2 C                    6.0000     0.66895154     0.00000350    -0.00000345
    3 H                    1.0000    -1.24632607     0.40201506     0.83551634
    4 H                    1.0000    -1.24632446    -0.40201266    -0.83551713
    5 H                    1.0000     1.24632485     0.40201250     0.83551733
    6 H                    1.0000     1.24632642    -0.40201489    -0.83551654

         Total DFT energy =      -78.089348868294

                    DFT Final Alpha Molecular Orbital Analysis
                    ------------------------------------------

 Vector    1  Occ=1.000000D+00  E=-1.024859D+01

 Vector    5  Occ=1.000000D+00  E=-7.341387D-01

 Vector    6  Occ=1.000000D+00  E=-6.991398D-01

 Vector    7  Occ=1.000000D+00  E=-6.096196D-01

 Vector    8  Occ=1.000000D+00  E=-6.041857D-01

 Vector    9  Occ=0.000000D+00  E=-3.710579D-01

 Vector   10  Occ=0.000000D+00  E=-1.831676D-01

 Vector   11  Occ=0.000000D+00  E=-1.628941D-01

 Vector   12  Occ=0.000000D+00  E=-1.509208D-01

 Vector   13  Occ=0.000000D+00  E=-6.651468D-02

 Vector   14  Occ=0.000000D+00  E=-4.937347D-02

 Vector   15  Occ=0.000000D+00  E=-4.277922D-02

 Vector   16  Occ=0.000000D+00  E=-2.628220D-02

 Vector   17  Occ=0.000000D+00  E= 1.399928D-03

 Vector   18  Occ=0.000000D+00  E= 3.616319D-02

 Vector   19  Occ=0.000000D+00  E= 3.712597D-02

 Vector   20  Occ=0.000000D+00  E= 1.045283D-01

 Vector   21  Occ=0.000000D+00  E= 1.664276D-01

 Vector   22  Occ=0.000000D+00  E= 2.268459D-01

 Vector   23  Occ=0.000000D+00  E= 2.352314D-01

 Vector   24  Occ=0.000000D+00  E= 2.357457D-01

 Vector   25  Occ=0.000000D+00  E= 3.450247D-01

 Vector   26  Occ=0.000000D+00  E= 3.485530D-01

 Vector   27  Occ=0.000000D+00  E= 1.026137D+00

 Vector   28  Occ=0.000000D+00  E= 1.070588D+00

 Vector   29  Occ=0.000000D+00  E= 1.091966D+00

 Vector   30  Occ=0.000000D+00  E= 1.137446D+00

 Vector   31  Occ=0.000000D+00  E= 1.168374D+00

 Vector   32  Occ=0.000000D+00  E= 1.399077D+00

 Vector   33  Occ=0.000000D+00  E= 1.823852D+00

 Vector   34  Occ=0.000000D+00  E= 1.858757D+00

 Vector   35  Occ=0.000000D+00  E= 2.003315D+00

 Vector   36  Occ=0.000000D+00  E= 2.060758D+00

 Vector   37  Occ=0.000000D+00  E= 2.181207D+00

 Vector   38  Occ=0.000000D+00  E= 2.304280D+00

 Vector   39  Occ=0.000000D+00  E= 1.104720D+01

 Vector   40  Occ=0.000000D+00  E= 1.143134D+01

 Vector   41  Occ=0.000000D+00  E= 6.199981D+01

 Vector   42  Occ=0.000000D+00  E= 6.237576D+01

 Vector    1  Occ=1.000000D+00  E=-1.024077D+01

 Vector    2  Occ=1.000000D+00  E=-1.024010D+01

 Vector    3  Occ=1.000000D+00  E=-1.016202D+00

 Vector    4  Occ=1.000000D+00  E=-8.162958D-01

 Vector    5  Occ=1.000000D+00  E=-7.255452D-01

 Vector    6  Occ=1.000000D+00  E=-6.892237D-01

 Vector    7  Occ=1.000000D+00  E=-6.050670D-01

 Vector    8  Occ=0.000000D+00  E=-5.369241D-01

 Vector    9  Occ=0.000000D+00  E=-3.092567D-01

 Vector   10  Occ=0.000000D+00  E=-1.771525D-01

 Vector   11  Occ=0.000000D+00  E=-1.601043D-01

 Vector   12  Occ=0.000000D+00  E=-1.418651D-01

 Vector   13  Occ=0.000000D+00  E=-6.424699D-02

 Vector   14  Occ=0.000000D+00  E=-3.658371D-02

 Vector   15  Occ=0.000000D+00  E=-2.295129D-02

 Vector   16  Occ=0.000000D+00  E=-2.077288D-02

 Vector   17  Occ=0.000000D+00  E= 7.010179D-03

 Vector   18  Occ=0.000000D+00  E= 5.251650D-02

 Vector   19  Occ=0.000000D+00  E= 6.229965D-02

 Vector   20  Occ=0.000000D+00  E= 1.318228D-01

 Vector   21  Occ=0.000000D+00  E= 1.685745D-01

 Vector   22  Occ=0.000000D+00  E= 2.308433D-01

 Vector   23  Occ=0.000000D+00  E= 2.403069D-01

 Vector   24  Occ=0.000000D+00  E= 2.469085D-01

 Vector   25  Occ=0.000000D+00  E= 3.552409D-01

 Vector   26  Occ=0.000000D+00  E= 3.625722D-01

 Vector   27  Occ=0.000000D+00  E= 1.080071D+00

 Vector   28  Occ=0.000000D+00  E= 1.083289D+00

 Vector   29  Occ=0.000000D+00  E= 1.141103D+00

 Vector   30  Occ=0.000000D+00  E= 1.150772D+00

 Vector   31  Occ=0.000000D+00  E= 1.182867D+00

 Vector   32  Occ=0.000000D+00  E= 1.408304D+00

 Vector   33  Occ=0.000000D+00  E= 1.831985D+00

 Vector   34  Occ=0.000000D+00  E= 1.860699D+00

 Vector   35  Occ=0.000000D+00  E= 2.000854D+00

 Vector   36  Occ=0.000000D+00  E= 2.091495D+00

 Vector   37  Occ=0.000000D+00  E= 2.181745D+00

 Vector   38  Occ=0.000000D+00  E= 2.325442D+00

 Vector   39  Occ=0.000000D+00  E= 1.106558D+01

 Vector   40  Occ=0.000000D+00  E= 1.145036D+01

 Vector   41  Occ=0.000000D+00  E= 6.200856D+01

 Vector   42  Occ=0.000000D+00  E= 6.238462D+01

     Multipole analysis of the density
     ---------------------------------

     L   x y z        total         alpha         beta         nuclear
     -   - - -        -----         -----         ----         -------
     0   0 0 0      1.000000     -8.000000     -7.000000     16.000000

     1   1 0 0     -0.000002     -0.000001     -0.000000      0.000000
     1   0 1 0     -0.000000     -0.000000      0.000000      0.000000
     1   0 0 1     -0.000000     -0.000000      0.000000      0.000000

     2   2 0 0     -4.424719    -23.711452    -22.077846     41.364579
     2   1 1 0     -0.000008     -0.000050     -0.000032      0.000074
     2   1 0 1     -0.000009      0.000052      0.000040     -0.000101
     2   0 2 0     -8.008996     -6.026755     -4.290793      2.308551
     2   0 1 1      0.812108     -1.680517     -2.305304      4.797929

 Total times  cpu:        0.5s     wall:        0.7s
