 Output coordinates in angstroms (scale by  1.889725989 to convert to a.u.)

  No.       Tag          Charge          X              Y              Z
 ---- ---------------- ---------- -------------- -------------- --------------
    1 C                    6.0000    -0.14249165    -0.19689509    -0.40952527
    2 C                    6.0000     1.19657071    -0.22805966    -0.47391638
    3 H                    1.0000     1.81827955     0.16170130     0.33673791
    4 H                    1.0000     1.72232347    -0.64257136    -1.33562288
    5 C                    6.0000    -0.94223841     0.35511898     0.73821364
    6 H                    1.0000    -0.72456646    -0.59968961    -1.24731409
    7 H                    1.0000    -0.28950084     0.73891847     1.53525175
    8 H                    1.0000    -1.59846769    -0.41624704     1.17449095
    9 H                    1.0000    -1.59911187     1.17690282     0.40782440

         Total DFT energy =     -117.391127123081

                    DFT Final Alpha Molecular Orbital Analysis
                    ------------------------------------------

 Vector    1  Occ=1.000000D+00  E=-1.021240D+01

 Vector   47  Occ=0.000000D+00  E= 1.407557D+00

 Vector   48  Occ=0.000000D+00  E= 1.496318D+00

 Vector   49  Occ=0.000000D+00  E= 1.850548D+00

 Vector   50  Occ=0.000000D+00  E= 1.905200D+00

 Vector   51  Occ=0.000000D+00  E= 2.019677D+00

 Vector   52  Occ=0.000000D+00  E= 2.054302D+00

 Vector   53  Occ=0.000000D+00  E= 2.076455D+00

 Vector   54  Occ=0.000000D+00  E= 2.137690D+00

 Vector   55  Occ=0.000000D+00  E= 2.191632D+00

 Vector   56  Occ=0.000000D+00  E= 2.369286D+00

 Vector   57  Occ=0.000000D+00  E= 2.517408D+00

 Vector   58  Occ=0.000000D+00  E= 1.112462D+01

 Vector   59  Occ=0.000000D+00  E= 1.144425D+01

 Vector   60  Occ=0.000000D+00  E= 1.151656D+01

 Vector   61  Occ=0.000000D+00  E= 6.207747D+01

 Vector   62  Occ=0.000000D+00  E= 6.239106D+01

 Vector   63  Occ=0.000000D+00  E= 6.246272D+01

 Vector    1  Occ=1.000000D+00  E=-1.020762D+01

 Vector    2  Occ=1.000000D+00  E=-1.019331D+01

 Vector    3  Occ=1.000000D+00  E=-1.012987D+01

 Vector    4  Occ=1.000000D+00  E=-9.954166D-01

 Vector    5  Occ=1.000000D+00  E=-8.773935D-01

 Vector    6  Occ=1.000000D+00  E=-7.580734D-01

 Vector    7  Occ=1.000000D+00  E=-6.867977D-01

 Vector    8  Occ=1.000000D+00  E=-6.435290D-01

 Vector    9  Occ=1.000000D+00  E=-6.055233D-01

 Vector   10  Occ=1.000000D+00  E=-5.750593D-01

 Vector   11  Occ=1.000000D+00  E=-5.570874D-01

 Vector   12  Occ=0.000000D+00  E=-4.863695D-01

 Vector   13  Occ=0.000000D+00  E=-2.727876D-01

 Vector   14  Occ=0.000000D+00  E=-1.603883D-01

 Vector   15  Occ=0.000000D+00  E=-1.399380D-01

 Vector   16  Occ=0.000000D+00  E=-1.230733D-01

 Vector   17  Occ=0.000000D+00  E=-1.018534D-01

 Vector   18  Occ=0.000000D+00  E=-8.986459D-02

 Vector   19  Occ=0.000000D+00  E=-8.602664D-02

 Vector   20  Occ=0.000000D+00  E=-3.542787D-02

 Vector   21  Occ=0.000000D+00  E=-1.550747D-02

 Vector   22  Occ=0.000000D+00  E=-6.714310D-03

 Vector   23  Occ=0.000000D+00  E= 3.494750D-02

 Vector   24  Occ=0.000000D+00  E= 3.943450D-02

 Vector   25  Occ=0.000000D+00  E= 4.931863D-02

 Vector   26  Occ=0.000000D+00  E= 6.975026D-02

 Vector   27  Occ=0.000000D+00  E= 9.972798D-02

 Vector   28  Occ=0.000000D+00  E= 1.025460D-01

 Vector   29  Occ=0.000000D+00  E= 1.527783D-01

 Vector   30  Occ=0.000000D+00  E= 1.909598D-01

 Vector   31  Occ=0.000000D+00  E= 2.316858D-01

 Vector   32  Occ=0.000000D+00  E= 2.321026D-01

 Vector   33  Occ=0.000000D+00  E= 2.463614D-01

 Vector   34  Occ=0.000000D+00  E= 2.633609D-01

 Vector   35  Occ=0.000000D+00  E= 2.783966D-01

 Vector   36  Occ=0.000000D+00  E= 2.873328D-01

 Vector   37  Occ=0.000000D+00  E= 3.857253D-01

 Vector   38  Occ=0.000000D+00  E= 4.280100D-01

 Vector   39  Occ=0.000000D+00  E= 4.813364D-01

 Vector   40  Occ=0.000000D+00  E= 1.117310D+00

 Vector   41  Occ=0.000000D+00  E= 1.117648D+00

 Vector   42  Occ=0.000000D+00  E= 1.140387D+00

 Vector   43  Occ=0.000000D+00  E= 1.172673D+00

 Vector   44  Occ=0.000000D+00  E= 1.189544D+00

 Vector   45  Occ=0.000000D+00  E= 1.264236D+00

 Vector   46  Occ=0.000000D+00  E= 1.270244D+00

 Vector   47  Occ=0.000000D+00  E= 1.414143D+00

 Vector   48  Occ=0.000000D+00  E= 1.503624D+00

 Vector   49  Occ=0.000000D+00  E= 1.857399D+00

 Vector   50  Occ=0.000000D+00  E= 1.914207D+00

 Vector   51  Occ=0.000000D+00  E= 2.020827D+00

 Vector   52  Occ=0.000000D+00  E= 2.068836D+00

 Vector   53  Occ=0.000000D+00  E= 2.081311D+00

 Vector   54  Occ=0.000000D+00  E= 2.153179D+00

 Vector   55  Occ=0.000000D+00  E= 2.196808D+00

 Vector   56  Occ=0.000000D+00  E= 2.386784D+00

 Vector   57  Occ=0.000000D+00  E= 2.523924D+00

 Vector   58  Occ=0.000000D+00  E= 1.113950D+01

 Vector   59  Occ=0.000000D+00  E= 1.144629D+01

 Vector   60  Occ=0.000000D+00  E= 1.153159D+01

 Vector   61  Occ=0.000000D+00  E= 6.208479D+01

 Vector   62  Occ=0.000000D+00  E= 6.239219D+01

 Vector   63  Occ=0.000000D+00  E= 6.246991D+01

     Multipole analysis of the density
     ---------------------------------

     L   x y z        total         alpha         beta         nuclear
     -   - - -        -----         -----         ----         -------
     0   0 0 0      1.000000    -12.000000    -11.000000     24.000000

     1   1 0 0      0.202050     -0.243371      0.445421      0.000000
     1   0 1 0     -0.112142      0.061798     -0.173940     -0.000000
     1   0 0 1     -0.232816      0.128446     -0.361262      0.000000

     2   2 0 0     -6.883133    -51.959886    -47.888747     92.965499
     2   1 1 0     -0.955218      9.370743      8.548485    -18.874446
     2   1 0 1     -1.985356     19.474940     17.764599    -39.224895
     2   0 2 0    -12.086729    -14.605745    -12.495044     15.014060
     2   0 1 1      1.289651     -9.068901     -9.251637     19.610188

 Total times  cpu:        1.7s     wall:        2.0s
