 Output coordinates in angstroms (scale by  1.889725989 to convert to a.u.)

  No.       Tag          Charge          X              Y              Z
 ---- ---------------- ---------- -------------- -------------- --------------
    1 C                    6.0000     0.30984579    -0.30197740    -0.93097775
    2 C                    6.0000     1.51718689    -0.50702506    -0.38371489
    3 H                    1.0000     1.71874824    -0.31687404     0.67224682
    4 H                    1.0000     2.35558335    -0.87574971    -0.97691182
    5 C                    6.0000    -0.92326496     0.20281730    -0.22030980
    6 H                    1.0000     0.17174794    -0.51238308    -1.99879055
    7 C                    6.0000    -0.75339037     0.50377803     1.27301478
    8 H                    1.0000    -1.27942190     1.11078366    -0.74248944
    9 H                    1.0000    -1.73322720    -0.53795622    -0.35861911
   10 H                    1.0000     0.01155542     1.27697081     1.44023676
   11 H                    1.0000    -0.45028357    -0.39563704     1.82989373
   12 H                    1.0000    -1.69696641     0.86528851     1.70635961

         Total DFT energy =     -156.659098668898

                    DFT Final Alpha Molecular Orbital Analysis
                    ------------------------------------------

 Vector    1  Occ=1.000000D+00  E=-1.018880D+01

 Vector    5  Occ=1.000000D+00  E=-9.837390D-01

 Vector    6  Occ=1.000000D+00  E=-8.928448D-01

 Vector    7  Occ=1.000000D+00  E=-7.990439D-01

 Vector    8  Occ=1.000000D+00  E=-7.221965D-01

 Vector    9  Occ=1.000000D+00  E=-6.747130D-01

 Vector   10  Occ=1.000000D+00  E=-6.272578D-01

 Vector   11  Occ=1.000000D+00  E=-6.193211D-01

 Vector   12  Occ=1.000000D+00  E=-5.705662D-01

 Vector   13  Occ=1.000000D+00  E=-5.255581D-01

 Vector   14  Occ=1.000000D+00  E=-5.145946D-01

 Vector   15  Occ=1.000000D+00  E=-5.132811D-01

 Vector   16  Occ=0.000000D+00  E=-4.714726D-01

 Vector   17  Occ=0.000000D+00  E=-2.588629D-01

 Vector   18  Occ=0.000000D+00  E=-1.560385D-01

 Vector   19  Occ=0.000000D+00  E=-1.351329D-01

 Vector   20  Occ=0.000000D+00  E=-1.186880D-01

 Vector   21  Occ=0.000000D+00  E=-9.647784D-02

 Vector   22  Occ=0.000000D+00  E=-8.233276D-02

 Vector   23  Occ=0.000000D+00  E=-7.350034D-02

 Vector   24  Occ=0.000000D+00  E=-6.435769D-02

 Vector   25  Occ=0.000000D+00  E=-6.289357D-02

 Vector   26  Occ=0.000000D+00  E=-4.192537D-02

 Vector   27  Occ=0.000000D+00  E=-2.701052D-02

 Vector   28  Occ=0.000000D+00  E= 9.659981D-03

 Vector   29  Occ=0.000000D+00  E= 2.152735D-02

 Vector   30  Occ=0.000000D+00  E= 2.482448D-02

 Vector   31  Occ=0.000000D+00  E= 5.086145D-02

 Vector   32  Occ=0.000000D+00  E= 6.115791D-02

 Vector   33  Occ=0.000000D+00  E= 7.809554D-02

 Vector   34  Occ=0.000000D+00  E= 1.022852D-01

 Vector   35  Occ=0.000000D+00  E= 1.104534D-01

 Vector   36  Occ=0.000000D+00  E= 1.251894D-01

 Vector   37  Occ=0.000000D+00  E= 1.811860D-01

 Vector   38  Occ=0.000000D+00  E= 1.891374D-01

 Vector   39  Occ=0.000000D+00  E= 2.138432D-01

 Vector   40  Occ=0.000000D+00  E= 2.260263D-01

 Vector   41  Occ=0.000000D+00  E= 2.356653D-01

 Vector   42  Occ=0.000000D+00  E= 2.433912D-01

 Vector   43  Occ=0.000000D+00  E= 2.654901D-01

 Vector   44  Occ=0.000000D+00  E= 2.829944D-01

 Vector   45  Occ=0.000000D+00  E= 2.849028D-01

 Vector   46  Occ=0.000000D+00  E= 3.079826D-01

 Vector   47  Occ=0.000000D+00  E= 3.228011D-01

 Vector   48  Occ=0.000000D+00  E= 3.453564D-01

 Vector   49  Occ=0.000000D+00  E= 3.957110D-01

 Vector   50  Occ=0.000000D+00  E= 4.372321D-01

 Vector   51  Occ=0.000000D+00  E= 4.839220D-01

 Vector   52  Occ=0.000000D+00  E= 5.814117D-01

 Vector   53  Occ=0.000000D+00  E= 1.139643D+00

 Vector   54  Occ=0.000000D+00  E= 1.147554D+00

 Vector   55  Occ=0.000000D+00  E= 1.157919D+00

 Vector   56  Occ=0.000000D+00  E= 1.190453D+00

 Vector   57  Occ=0.000000D+00  E= 1.223052D+00

 Vector   58  Occ=0.000000D+00  E= 1.246831D+00

 Vector   59  Occ=0.000000D+00  E= 1.263321D+00

 Vector   60  Occ=0.000000D+00  E= 1.329229D+00

 Vector   61  Occ=0.000000D+00  E= 1.376078D+00

 Vector   62  Occ=0.000000D+00  E= 1.386173D+00

 Vector   63  Occ=0.000000D+00  E= 1.481679D+00

 Vector   64  Occ=0.000000D+00  E= 1.563539D+00

 Vector   65  Occ=0.000000D+00  E= 1.900301D+00

 Vector   66  Occ=0.000000D+00  E= 1.948918D+00

 Vector   67  Occ=0.000000D+00  E= 2.004258D+00

 Vector   68  Occ=0.000000D+00  E= 2.071071D+00

 Vector   69  Occ=0.000000D+00  E= 2.107094D+00

 Vector   70  Occ=0.000000D+00  E= 2.135926D+00

 Vector   71  Occ=0.000000D+00  E= 2.157956D+00

 Vector   72  Occ=0.000000D+00  E= 2.212638D+00

 Vector   73  Occ=0.000000D+00  E= 2.264605D+00

 Vector   74  Occ=0.000000D+00  E= 2.403485D+00

 Vector   75  Occ=0.000000D+00  E= 2.516496D+00

 Vector   76  Occ=0.000000D+00  E= 2.633778D+00

 Vector   77  Occ=0.000000D+00  E= 1.118640D+01

 Vector   78  Occ=0.000000D+00  E= 1.149346D+01

 Vector   79  Occ=0.000000D+00  E= 1.149932D+01

 Vector   80  Occ=0.000000D+00  E= 1.156168D+01

 Vector   81  Occ=0.000000D+00  E= 6.213408D+01

 Vector   82  Occ=0.000000D+00  E= 6.243628D+01

 Vector   83  Occ=0.000000D+00  E= 6.244170D+01

 Vector   84  Occ=0.000000D+00  E= 6.250657D+01

     Multipole analysis of the density
     ---------------------------------

     L   x y z        total         alpha         beta         nuclear
     -   - - -        -----         -----         ----         -------
     0   0 0 0      1.000000    -16.000000    -15.000000     32.000000

     1   1 0 0      0.473220     -0.308551      0.781771     -0.000000
     1   0 1 0     -0.279362      0.109521     -0.388883     -0.000000
     1   0 0 1     -0.640175      0.105484     -0.745660      0.000000

     2   2 0 0    -10.321095    -78.106859    -72.068545    139.854309
     2   1 1 0     -2.225905     22.811078     21.520529    -46.557512
     2   1 0 1     -1.240194     23.855492     22.679074    -47.774759
     2   0 2 0    -16.464518    -25.770354    -23.005793     32.311630
     2   0 1 1      1.207643    -17.497450    -17.221330     35.926423

 Total times  cpu:       38.7s     wall:       40.0s
