 Output coordinates in angstroms (scale by  1.889725989 to convert to a.u.)

  No.       Tag          Charge          X              Y              Z
 ---- ---------------- ---------- -------------- -------------- --------------
    1 C                    6.0000     0.74532643    -0.51756648    -1.33648511
    2 C                    6.0000     1.95895077    -0.72604011    -0.80412369
    3 H                    1.0000     2.17521108    -0.53823327     0.24927633
    4 H                    1.0000     2.78871660    -1.09589824    -1.40876349
    5 C                    6.0000    -0.47908100    -0.01158466    -0.61322382
    6 H                    1.0000     0.59551869    -0.72667429    -2.40303135
    7 C                    6.0000    -0.30735245     0.29084909     0.88151995
    8 H                    1.0000    -0.84085596     0.89968556    -1.12794861
    9 H                    1.0000    -1.29442023    -0.74972231    -0.74204456
   10 H                    1.0000     0.48989420     1.04189571     1.01365714
   11 H                    1.0000     0.03400582    -0.61993885     1.40216628
   12 C                    6.0000    -1.60479910     0.79792512     1.52821767
   13 H                    1.0000    -1.95219255     1.72521400     1.04588270
   14 H                    1.0000    -1.46335538     1.00940051     2.59837978
   15 H                    1.0000    -2.41079010     0.05277351     1.43699589

         Total DFT energy =     -195.923195426058

                    DFT Final Alpha Molecular Orbital Analysis
                    ------------------------------------------

 Vector    1  Occ=1.000000D+00  E=-1.017279D+01

 Vector   26  Occ=0.000000D+00  E=-8.702711D-02

 Vector   27  Occ=0.000000D+00  E=-7.101597D-02

 Vector   28  Occ=0.000000D+00  E=-5.977753D-02

 Vector   29  Occ=0.000000D+00  E=-5.405828D-02

 Vector   30  Occ=0.000000D+00  E=-4.915229D-02

 Vector   31  Occ=0.000000D+00  E=-3.073152D-02

 Vector   32  Occ=0.000000D+00  E=-2.404580D-02

 Vector   33  Occ=0.000000D+00  E=-8.698709D-03

 Vector   34  Occ=0.000000D+00  E=-3.682896D-03

 Vector   35  Occ=0.000000D+00  E= 2.486443D-02

 Vector   36  Occ=0.000000D+00  E= 2.537425D-02

 Vector   37  Occ=0.000000D+00  E= 4.792313D-02

 Vector   38  Occ=0.000000D+00  E= 7.128483D-02

 Vector   39  Occ=0.000000D+00  E= 8.917321D-02

 Vector   40  Occ=0.000000D+00  E= 9.221253D-02

 Vector   41  Occ=0.000000D+00  E= 9.686690D-02

 Vector   42  Occ=0.000000D+00  E= 9.920265D-02

 Vector   43  Occ=0.000000D+00  E= 1.181957D-01

 Vector   44  Occ=0.000000D+00  E= 1.358177D-01

 Vector   45  Occ=0.000000D+00  E= 1.952565D-01

 Vector   46  Occ=0.000000D+00  E= 1.956239D-01

 Vector   47  Occ=0.000000D+00  E= 1.990888D-01

 Vector   48  Occ=0.000000D+00  E= 2.245967D-01

 Vector   49  Occ=0.000000D+00  E= 2.324088D-01

 Vector   50  Occ=0.000000D+00  E= 2.468628D-01

 Vector   51  Occ=0.000000D+00  E= 2.564434D-01

 Vector   52  Occ=0.000000D+00  E= 2.804706D-01

 Vector   53  Occ=0.000000D+00  E= 2.850370D-01

 Vector   54  Occ=0.000000D+00  E= 2.900605D-01

 Vector   55  Occ=0.000000D+00  E= 3.052557D-01

 Vector   56  Occ=0.000000D+00  E= 3.129356D-01

 Vector   57  Occ=0.000000D+00  E= 3.245847D-01

 Vector   58  Occ=0.000000D+00  E= 3.418070D-01

 Vector   59  Occ=0.000000D+00  E= 3.578167D-01

 Vector   60  Occ=0.000000D+00  E= 3.795407D-01

 Vector   61  Occ=0.000000D+00  E= 4.048771D-01

 Vector   62  Occ=0.000000D+00  E= 4.497341D-01

 Vector   63  Occ=0.000000D+00  E= 4.990328D-01

 Vector   64  Occ=0.000000D+00  E= 5.794076D-01

 Vector   65  Occ=0.000000D+00  E= 6.214860D-01

 Vector   66  Occ=0.000000D+00  E= 1.151519D+00

 Vector   67  Occ=0.000000D+00  E= 1.155920D+00

 Vector   68  Occ=0.000000D+00  E= 1.167311D+00

 Vector   69  Occ=0.000000D+00  E= 1.201022D+00

 Vector   70  Occ=0.000000D+00  E= 1.238310D+00

 Vector   71  Occ=0.000000D+00  E= 1.265249D+00

 Vector   72  Occ=0.000000D+00  E= 1.272442D+00

 Vector   73  Occ=0.000000D+00  E= 1.294967D+00

 Vector   74  Occ=0.000000D+00  E= 1.302665D+00

 Vector   75  Occ=0.000000D+00  E= 1.314299D+00

 Vector   76  Occ=0.000000D+00  E= 1.426354D+00

 Vector   77  Occ=0.000000D+00  E= 1.462018D+00

 Vector   78  Occ=0.000000D+00  E= 1.477126D+00

 Vector   79  Occ=0.000000D+00  E= 1.523279D+00

 Vector   80  Occ=0.000000D+00  E= 1.624533D+00

 Vector   81  Occ=0.000000D+00  E= 1.914732D+00

 Vector   82  Occ=0.000000D+00  E= 1.945755D+00

 Vector   83  Occ=0.000000D+00  E= 2.019381D+00

 Vector   84  Occ=0.000000D+00  E= 2.082827D+00

 Vector   85  Occ=0.000000D+00  E= 2.107555D+00

 Vector   86  Occ=0.000000D+00  E= 2.128378D+00

 Vector   87  Occ=0.000000D+00  E= 2.148342D+00

 Vector   88  Occ=0.000000D+00  E= 2.187930D+00

 Vector   89  Occ=0.000000D+00  E= 2.216861D+00

 Vector   90  Occ=0.000000D+00  E= 2.218131D+00

 Vector   91  Occ=0.000000D+00  E= 2.306486D+00

 Vector   92  Occ=0.000000D+00  E= 2.416760D+00

 Vector   93  Occ=0.000000D+00  E= 2.543007D+00

 Vector   94  Occ=0.000000D+00  E= 2.616985D+00

 Vector   95  Occ=0.000000D+00  E= 2.686610D+00

 Vector   96  Occ=0.000000D+00  E= 1.122365D+01

 Vector   97  Occ=0.000000D+00  E= 1.152280D+01

 Vector   98  Occ=0.000000D+00  E= 1.153532D+01

 Vector   99  Occ=0.000000D+00  E= 1.155633D+01

 Vector  100  Occ=0.000000D+00  E= 1.158776D+01

 Vector  101  Occ=0.000000D+00  E= 6.217296D+01

 Vector  102  Occ=0.000000D+00  E= 6.246510D+01

 Vector  103  Occ=0.000000D+00  E= 6.247373D+01

 Vector  104  Occ=0.000000D+00  E= 6.250572D+01

 Vector  105  Occ=0.000000D+00  E= 6.253590D+01

     Multipole analysis of the density
     ---------------------------------

     L   x y z        total         alpha         beta         nuclear
     -   - - -        -----         -----         ----         -------
     0   0 0 0      1.000000    -20.000000    -19.000000     40.000000

     1   1 0 0      0.938996     -0.335801      1.274797     -0.000000
     1   0 1 0     -0.491373      0.128965     -0.620338     -0.000000
     1   0 0 1     -0.998717      0.157212     -1.155929     -0.000000

     2   2 0 0    -13.424145   -137.730739   -129.258250    253.564843
     2   1 1 0     -3.201448     49.539285     47.116875    -99.857608
     2   1 0 1     -3.504416     74.326840     71.005716   -148.836972
     2   0 2 0    -20.658077    -44.118630    -40.663967     64.124520
     2   0 1 1      2.375729    -42.207553    -40.900775     85.484056

 Total times  cpu:       72.3s     wall:       74.5s
