 Output coordinates in angstroms (scale by  1.889725989 to convert to a.u.)

  No.       Tag          Charge          X              Y              Z
 ---- ---------------- ---------- -------------- -------------- --------------
    1 C                    6.0000    -0.46645994     0.41958267     0.23996048
    2 C                    6.0000     0.46646513    -0.41957496    -0.23996387
    3 H                    1.0000    -1.28634079     0.72932280    -0.42133078
    4 C                    6.0000    -0.48883785     0.98542524     1.63345147
    5 C                    6.0000     0.48883486    -0.98543036    -1.63344942
    6 H                    1.0000     1.28633704    -0.72932580     0.42133319
    7 H                    1.0000     0.36534659     0.62529388     2.22534693
    8 H                    1.0000    -1.41312845     0.70636015     2.16664530
    9 H                    1.0000    -0.45279499     2.08770842     1.62119486
   10 H                    1.0000    -0.36534835    -0.62529570    -2.22534505
   11 H                    1.0000     0.45278992    -2.08771277    -1.62119190
   12 H                    1.0000     1.41312583    -0.70636660    -2.16664441

         Total DFT energy =     -156.684602991300

                    DFT Final Alpha Molecular Orbital Analysis
                    ------------------------------------------

 Vector    1  Occ=1.000000D+00  E=-1.018155D+01

 Vector    5  Occ=1.000000D+00  E=-9.807597D-01

 Vector    6  Occ=1.000000D+00  E=-8.869699D-01

 Vector    7  Occ=1.000000D+00  E=-8.134413D-01

 Vector    8  Occ=1.000000D+00  E=-7.305068D-01

 Vector    9  Occ=1.000000D+00  E=-6.324159D-01

 Vector   10  Occ=1.000000D+00  E=-6.315133D-01

 Vector   11  Occ=1.000000D+00  E=-5.901945D-01

 Vector   12  Occ=1.000000D+00  E=-5.701575D-01

 Vector   13  Occ=1.000000D+00  E=-5.475927D-01

 Vector   14  Occ=1.000000D+00  E=-5.437046D-01

 Vector   15  Occ=1.000000D+00  E=-5.311653D-01

 Vector   16  Occ=0.000000D+00  E=-4.491725D-01

 Vector   17  Occ=0.000000D+00  E=-2.450148D-01

 Vector   18  Occ=0.000000D+00  E=-1.408855D-01

 Vector   19  Occ=0.000000D+00  E=-1.363563D-01

 Vector   20  Occ=0.000000D+00  E=-1.260813D-01

 Vector   21  Occ=0.000000D+00  E=-8.482248D-02

 Vector   22  Occ=0.000000D+00  E=-8.465465D-02

 Vector   23  Occ=0.000000D+00  E=-7.471791D-02

 Vector   24  Occ=0.000000D+00  E=-6.656639D-02

 Vector   25  Occ=0.000000D+00  E=-6.392827D-02

 Vector   26  Occ=0.000000D+00  E=-5.026583D-02

 Vector   27  Occ=0.000000D+00  E=-8.899650D-03

 Vector   28  Occ=0.000000D+00  E= 3.995954D-03

 Vector   29  Occ=0.000000D+00  E= 1.078205D-02

 Vector   30  Occ=0.000000D+00  E= 2.787449D-02

 Vector   31  Occ=0.000000D+00  E= 4.842362D-02

 Vector   32  Occ=0.000000D+00  E= 6.787705D-02

 Vector   33  Occ=0.000000D+00  E= 9.124418D-02

 Vector   34  Occ=0.000000D+00  E= 1.171939D-01

 Vector   35  Occ=0.000000D+00  E= 1.226102D-01

 Vector   36  Occ=0.000000D+00  E= 1.357155D-01

 Vector   37  Occ=0.000000D+00  E= 1.367551D-01

 Vector   38  Occ=0.000000D+00  E= 1.633360D-01

 Vector   39  Occ=0.000000D+00  E= 2.138000D-01

 Vector   40  Occ=0.000000D+00  E= 2.376497D-01

 Vector   41  Occ=0.000000D+00  E= 2.411362D-01

 Vector   42  Occ=0.000000D+00  E= 2.452938D-01

 Vector   43  Occ=0.000000D+00  E= 2.554149D-01

 Vector   44  Occ=0.000000D+00  E= 2.634781D-01

 Vector   45  Occ=0.000000D+00  E= 2.879711D-01

 Vector   46  Occ=0.000000D+00  E= 2.949958D-01

 Vector   47  Occ=0.000000D+00  E= 3.030513D-01

 Vector   48  Occ=0.000000D+00  E= 3.187987D-01

 Vector   49  Occ=0.000000D+00  E= 4.169782D-01

 Vector   50  Occ=0.000000D+00  E= 4.837289D-01

 Vector   51  Occ=0.000000D+00  E= 4.874157D-01

 Vector   52  Occ=0.000000D+00  E= 5.439028D-01

 Vector   53  Occ=0.000000D+00  E= 1.100958D+00

 Vector   54  Occ=0.000000D+00  E= 1.138042D+00

 Vector   55  Occ=0.000000D+00  E= 1.163222D+00

 Vector   56  Occ=0.000000D+00  E= 1.182457D+00

 Vector   57  Occ=0.000000D+00  E= 1.205669D+00

 Vector   58  Occ=0.000000D+00  E= 1.247667D+00

 Vector   59  Occ=0.000000D+00  E= 1.283598D+00

 Vector   60  Occ=0.000000D+00  E= 1.322438D+00

 Vector   61  Occ=0.000000D+00  E= 1.341416D+00

 Vector   62  Occ=0.000000D+00  E= 1.402419D+00

 Vector   63  Occ=0.000000D+00  E= 1.468122D+00

 Vector   64  Occ=0.000000D+00  E= 1.602923D+00

 Vector   65  Occ=0.000000D+00  E= 1.887345D+00

 Vector   66  Occ=0.000000D+00  E= 1.914552D+00

 Vector   67  Occ=0.000000D+00  E= 2.024527D+00

 Vector   68  Occ=0.000000D+00  E= 2.084424D+00

 Vector   69  Occ=0.000000D+00  E= 2.099517D+00

 Vector   70  Occ=0.000000D+00  E= 2.105109D+00

 Vector   71  Occ=0.000000D+00  E= 2.113411D+00

 Vector   72  Occ=0.000000D+00  E= 2.157846D+00

 Vector   73  Occ=0.000000D+00  E= 2.244150D+00

 Vector   74  Occ=0.000000D+00  E= 2.426140D+00

 Vector   75  Occ=0.000000D+00  E= 2.563447D+00

 Vector   76  Occ=0.000000D+00  E= 2.567647D+00

 Vector   77  Occ=0.000000D+00  E= 1.119825D+01

 Vector   78  Occ=0.000000D+00  E= 1.147572D+01

 Vector   79  Occ=0.000000D+00  E= 1.148417D+01

 Vector   80  Occ=0.000000D+00  E= 1.161347D+01

 Vector   81  Occ=0.000000D+00  E= 6.214459D+01

 Vector   82  Occ=0.000000D+00  E= 6.242168D+01

 Vector   83  Occ=0.000000D+00  E= 6.243193D+01

 Vector   84  Occ=0.000000D+00  E= 6.255474D+01

     Multipole analysis of the density
     ---------------------------------

     L   x y z        total         alpha         beta         nuclear
     -   - - -        -----         -----         ----         -------
     0   0 0 0      1.000000    -16.000000    -15.000000     32.000000

     1   1 0 0     -0.000001     -0.000005      0.000004     -0.000000
     1   0 1 0      0.000000     -0.000006      0.000007     -0.000000
     1   0 0 1      0.000001      0.000003     -0.000002     -0.000000

     2   2 0 0    -14.879045    -32.498828    -30.442354     48.062137
     2   1 1 0     -2.461264     23.066955     22.450984    -47.979203
     2   1 0 1     -2.251455     28.088967     26.106310    -56.446731
     2   0 2 0    -13.708520    -53.847291    -50.302562     90.441334
     2   0 1 1      4.345035    -56.937330    -54.857316    116.139681

 Total times  cpu:        2.7s     wall:        2.8s
