 Output coordinates in angstroms (scale by  1.889725989 to convert to a.u.)

  No.       Tag          Charge          X              Y              Z
 ---- ---------------- ---------- -------------- -------------- --------------
    1 C                    6.0000    -0.58840700     0.68908573    -0.28219464
    2 C                    6.0000     0.23448237    -0.17826608    -0.90215080
    3 H                    1.0000    -1.15509039     1.38648161    -0.91000124
    4 C                    6.0000    -0.83301387     0.82390645     1.19649085
    5 H                    1.0000     0.28660177    -0.13315885    -1.99617214
    6 C                    6.0000     1.11055643    -1.22446609    -0.26774312
    7 H                    1.0000    -0.24823983     0.11011743     1.79122587
    8 H                    1.0000    -1.89805859     0.66613611     1.43556382
    9 H                    1.0000    -0.57998161     1.83862330     1.54675577
   10 H                    1.0000     0.85183963    -2.23122935    -0.63631517
   11 H                    1.0000     1.03088578    -1.23926352     0.82706518
   12 H                    1.0000     2.17033559    -1.05926679    -0.52453570

         Total DFT energy =     -156.682558446392

                    DFT Final Alpha Molecular Orbital Analysis
                    ------------------------------------------

 Vector    1  Occ=1.000000D+00  E=-1.018325D+01

 Vector    5  Occ=1.000000D+00  E=-9.803697D-01

 Vector    6  Occ=1.000000D+00  E=-8.833161D-01

 Vector    7  Occ=1.000000D+00  E=-8.296952D-01

 Vector    8  Occ=1.000000D+00  E=-7.044649D-01

 Vector    9  Occ=1.000000D+00  E=-6.739825D-01

 Vector   10  Occ=1.000000D+00  E=-6.081840D-01

 Vector   11  Occ=1.000000D+00  E=-5.920106D-01

 Vector   12  Occ=1.000000D+00  E=-5.704749D-01

 Vector   13  Occ=1.000000D+00  E=-5.594759D-01

 Vector   14  Occ=1.000000D+00  E=-5.463796D-01

 Vector   15  Occ=1.000000D+00  E=-5.231045D-01

 Vector   16  Occ=0.000000D+00  E=-4.502400D-01

 Vector   17  Occ=0.000000D+00  E=-2.447717D-01

 Vector   18  Occ=0.000000D+00  E=-1.544653D-01

 Vector   19  Occ=0.000000D+00  E=-1.350588D-01

 Vector   20  Occ=0.000000D+00  E=-1.090317D-01

 Vector   21  Occ=0.000000D+00  E=-8.599156D-02

 Vector   22  Occ=0.000000D+00  E=-8.292785D-02

 Vector   23  Occ=0.000000D+00  E=-8.078629D-02

 Vector   24  Occ=0.000000D+00  E=-6.724041D-02

 Vector   25  Occ=0.000000D+00  E=-6.611457D-02

 Vector   26  Occ=0.000000D+00  E=-3.483618D-02

 Vector   27  Occ=0.000000D+00  E=-1.874347D-02

 Vector   28  Occ=0.000000D+00  E= 3.848338D-03

 Vector   29  Occ=0.000000D+00  E= 1.016523D-02

 Vector   30  Occ=0.000000D+00  E= 4.890388D-02

 Vector   31  Occ=0.000000D+00  E= 5.481786D-02

 Vector   32  Occ=0.000000D+00  E= 6.369939D-02

 Vector   33  Occ=0.000000D+00  E= 8.965883D-02

 Vector   34  Occ=0.000000D+00  E= 1.054589D-01

 Vector   35  Occ=0.000000D+00  E= 1.136926D-01

 Vector   36  Occ=0.000000D+00  E= 1.377570D-01

 Vector   37  Occ=0.000000D+00  E= 1.558450D-01

 Vector   38  Occ=0.000000D+00  E= 1.777212D-01

 Vector   39  Occ=0.000000D+00  E= 1.994629D-01

 Vector   40  Occ=0.000000D+00  E= 2.412308D-01

 Vector   41  Occ=0.000000D+00  E= 2.479764D-01

 Vector   42  Occ=0.000000D+00  E= 2.539876D-01

 Vector   43  Occ=0.000000D+00  E= 2.582548D-01

 Vector   44  Occ=0.000000D+00  E= 2.609490D-01

 Vector   45  Occ=0.000000D+00  E= 2.756240D-01

 Vector   46  Occ=0.000000D+00  E= 2.966182D-01

 Vector   47  Occ=0.000000D+00  E= 3.088640D-01

 Vector   48  Occ=0.000000D+00  E= 3.315624D-01

 Vector   49  Occ=0.000000D+00  E= 4.181402D-01

 Vector   50  Occ=0.000000D+00  E= 4.792225D-01

 Vector   51  Occ=0.000000D+00  E= 4.928138D-01

 Vector   52  Occ=0.000000D+00  E= 5.600213D-01

 Vector   53  Occ=0.000000D+00  E= 1.104573D+00

 Vector   54  Occ=0.000000D+00  E= 1.140896D+00

 Vector   55  Occ=0.000000D+00  E= 1.172073D+00

 Vector   56  Occ=0.000000D+00  E= 1.195065D+00

 Vector   57  Occ=0.000000D+00  E= 1.205631D+00

 Vector   58  Occ=0.000000D+00  E= 1.253837D+00

 Vector   59  Occ=0.000000D+00  E= 1.275007D+00

 Vector   60  Occ=0.000000D+00  E= 1.328035D+00

 Vector   61  Occ=0.000000D+00  E= 1.349095D+00

 Vector   62  Occ=0.000000D+00  E= 1.387378D+00

 Vector   63  Occ=0.000000D+00  E= 1.493407D+00

 Vector   64  Occ=0.000000D+00  E= 1.561718D+00

 Vector   65  Occ=0.000000D+00  E= 1.858766D+00

 Vector   66  Occ=0.000000D+00  E= 1.948150D+00

 Vector   67  Occ=0.000000D+00  E= 2.038087D+00

 Vector   68  Occ=0.000000D+00  E= 2.082877D+00

 Vector   69  Occ=0.000000D+00  E= 2.089724D+00

 Vector   70  Occ=0.000000D+00  E= 2.103277D+00

 Vector   71  Occ=0.000000D+00  E= 2.107202D+00

 Vector   72  Occ=0.000000D+00  E= 2.214124D+00

 Vector   73  Occ=0.000000D+00  E= 2.224838D+00

 Vector   74  Occ=0.000000D+00  E= 2.445085D+00

 Vector   75  Occ=0.000000D+00  E= 2.488432D+00

 Vector   76  Occ=0.000000D+00  E= 2.640177D+00

 Vector   77  Occ=0.000000D+00  E= 1.119924D+01

 Vector   78  Occ=0.000000D+00  E= 1.145238D+01

 Vector   79  Occ=0.000000D+00  E= 1.150838D+01

 Vector   80  Occ=0.000000D+00  E= 1.161116D+01

 Vector   81  Occ=0.000000D+00  E= 6.214515D+01

 Vector   82  Occ=0.000000D+00  E= 6.239692D+01

 Vector   83  Occ=0.000000D+00  E= 6.245701D+01

 Vector   84  Occ=0.000000D+00  E= 6.255291D+01

     Multipole analysis of the density
     ---------------------------------

     L   x y z        total         alpha         beta         nuclear
     -   - - -        -----         -----         ----         -------
     0   0 0 0      1.000000    -16.000000    -15.000000     32.000000

     1   1 0 0     -0.080610      0.056840     -0.137450      0.000000
     1   0 1 0      0.116248     -0.082070      0.198318     -0.000000
     1   0 0 1     -0.269631      0.190214     -0.459845      0.000000

     2   2 0 0    -13.602794    -54.728507    -51.316393     92.442107
     2   1 1 0     -3.800994     42.316151     41.143457    -87.260602
     2   1 0 1     -1.799576     21.784522     20.884690    -44.468788
     2   0 2 0    -13.009222    -60.976057    -57.455297    105.422132
     2   0 1 1      1.623074    -20.440644    -19.474919     41.538637

 Total times  cpu:        2.9s     wall:        3.2s
