 Output coordinates in angstroms (scale by  1.889725989 to convert to a.u.)

  No.       Tag          Charge          X              Y              Z
 ---- ---------------- ---------- -------------- -------------- --------------
    1 C                    6.0000    -0.59951542     0.80255290    -0.45086700
    2 C                    6.0000     0.14730898    -0.12593532    -1.07900314
    3 H                    1.0000    -1.14306562     1.52624786    -1.07136544
    4 C                    6.0000    -0.81485580     0.96357688     1.03284389
    5 H                    1.0000     0.18365486    -0.09619679    -2.17537706
    6 C                    6.0000     0.98493478    -1.21298255    -0.45422950
    7 H                    1.0000    -0.16330706     0.28229710     1.60062608
    8 C                    6.0000    -2.28520694     0.72831045     1.43924501
    9 H                    1.0000    -0.52461462     1.98779524     1.32934551
   10 H                    1.0000     0.65689280    -2.19164826    -0.84908226
   11 H                    1.0000     0.82891853    -1.25237448     0.63440293
   12 C                    6.0000     2.48886326    -1.03724383    -0.75344393
   13 H                    1.0000    -2.59253338    -0.30192419     1.20706133
   14 H                    1.0000    -2.95897360     1.40842205     0.89538071
   15 H                    1.0000    -2.43076033     0.89763007     2.51673434
   16 H                    1.0000     2.67514939    -1.00996138    -1.83828541
   17 H                    1.0000     3.07692345    -1.86517979    -0.32973242
   18 H                    1.0000     2.86254233    -0.09477864    -0.32698040

         Total DFT energy =     -235.212046185243

                    DFT Final Alpha Molecular Orbital Analysis
                    ------------------------------------------

 Vector    1  Occ=1.000000D+00  E=-1.015922D+01

 Vector   47  Occ=0.000000D+00  E= 8.033660D-02

 Vector   48  Occ=0.000000D+00  E= 9.600758D-02

 Vector   49  Occ=0.000000D+00  E= 1.039640D-01

 Vector   50  Occ=0.000000D+00  E= 1.120268D-01

 Vector   51  Occ=0.000000D+00  E= 1.616940D-01

 Vector   52  Occ=0.000000D+00  E= 1.637011D-01

 Vector   53  Occ=0.000000D+00  E= 1.902011D-01

 Vector   54  Occ=0.000000D+00  E= 1.944014D-01

 Vector   55  Occ=0.000000D+00  E= 2.111991D-01

 Vector   56  Occ=0.000000D+00  E= 2.162772D-01

 Vector   57  Occ=0.000000D+00  E= 2.269724D-01

 Vector   58  Occ=0.000000D+00  E= 2.414906D-01

 Vector   59  Occ=0.000000D+00  E= 2.487525D-01

 Vector   60  Occ=0.000000D+00  E= 2.571046D-01

 Vector   61  Occ=0.000000D+00  E= 2.646519D-01

 Vector   62  Occ=0.000000D+00  E= 2.814253D-01

 Vector   63  Occ=0.000000D+00  E= 2.966850D-01

 Vector   64  Occ=0.000000D+00  E= 2.996262D-01

 Vector   65  Occ=0.000000D+00  E= 3.052082D-01

 Vector   66  Occ=0.000000D+00  E= 3.064379D-01

 Vector   67  Occ=0.000000D+00  E= 3.194891D-01

 Vector   68  Occ=0.000000D+00  E= 3.327223D-01

 Vector   69  Occ=0.000000D+00  E= 3.372072D-01

 Vector   70  Occ=0.000000D+00  E= 3.473297D-01

 Vector   71  Occ=0.000000D+00  E= 3.687580D-01

 Vector   72  Occ=0.000000D+00  E= 3.722740D-01

 Vector   73  Occ=0.000000D+00  E= 4.254380D-01

 Vector   74  Occ=0.000000D+00  E= 4.747472D-01

 Vector   75  Occ=0.000000D+00  E= 5.119755D-01

 Vector   76  Occ=0.000000D+00  E= 5.527449D-01

 Vector   77  Occ=0.000000D+00  E= 5.951389D-01

 Vector   78  Occ=0.000000D+00  E= 6.187215D-01

 Vector   79  Occ=0.000000D+00  E= 1.155438D+00

 Vector   80  Occ=0.000000D+00  E= 1.171610D+00

 Vector   81  Occ=0.000000D+00  E= 1.199806D+00

 Vector   82  Occ=0.000000D+00  E= 1.201483D+00

 Vector   83  Occ=0.000000D+00  E= 1.229011D+00

 Vector   84  Occ=0.000000D+00  E= 1.257667D+00

 Vector   85  Occ=0.000000D+00  E= 1.276104D+00

 Vector   86  Occ=0.000000D+00  E= 1.280467D+00

 Vector   87  Occ=0.000000D+00  E= 1.310375D+00

 Vector   88  Occ=0.000000D+00  E= 1.325502D+00

 Vector   89  Occ=0.000000D+00  E= 1.333585D+00

 Vector   90  Occ=0.000000D+00  E= 1.390132D+00

 Vector   91  Occ=0.000000D+00  E= 1.430246D+00

 Vector   92  Occ=0.000000D+00  E= 1.430931D+00

 Vector   93  Occ=0.000000D+00  E= 1.488280D+00

 Vector   94  Occ=0.000000D+00  E= 1.535960D+00

 Vector   95  Occ=0.000000D+00  E= 1.596180D+00

 Vector   96  Occ=0.000000D+00  E= 1.602042D+00

 Vector   97  Occ=0.000000D+00  E= 1.930956D+00

 Vector   98  Occ=0.000000D+00  E= 1.953079D+00

 Vector   99  Occ=0.000000D+00  E= 1.988620D+00

 Vector  100  Occ=0.000000D+00  E= 2.043525D+00

 Vector  101  Occ=0.000000D+00  E= 2.099497D+00

 Vector  102  Occ=0.000000D+00  E= 2.105409D+00

 Vector  103  Occ=0.000000D+00  E= 2.156924D+00

 Vector  104  Occ=0.000000D+00  E= 2.158250D+00

 Vector  105  Occ=0.000000D+00  E= 2.169421D+00

 Vector  106  Occ=0.000000D+00  E= 2.196230D+00

 Vector  107  Occ=0.000000D+00  E= 2.216160D+00

 Vector  108  Occ=0.000000D+00  E= 2.283018D+00

 Vector  109  Occ=0.000000D+00  E= 2.366488D+00

 Vector  110  Occ=0.000000D+00  E= 2.478125D+00

 Vector  111  Occ=0.000000D+00  E= 2.521603D+00

 Vector  112  Occ=0.000000D+00  E= 2.530123D+00

 Vector  113  Occ=0.000000D+00  E= 2.605113D+00

 Vector  114  Occ=0.000000D+00  E= 2.670455D+00

 Vector  115  Occ=0.000000D+00  E= 1.126716D+01

 Vector  116  Occ=0.000000D+00  E= 1.150361D+01

 Vector  117  Occ=0.000000D+00  E= 1.150575D+01

 Vector  118  Occ=0.000000D+00  E= 1.152048D+01

 Vector  119  Occ=0.000000D+00  E= 1.158168D+01

 Vector  120  Occ=0.000000D+00  E= 1.168254D+01

 Vector  121  Occ=0.000000D+00  E= 6.221580D+01

 Vector  122  Occ=0.000000D+00  E= 6.244531D+01

 Vector  123  Occ=0.000000D+00  E= 6.244820D+01

 Vector  124  Occ=0.000000D+00  E= 6.246751D+01

 Vector  125  Occ=0.000000D+00  E= 6.252878D+01

 Vector  126  Occ=0.000000D+00  E= 6.262678D+01

     Multipole analysis of the density
     ---------------------------------

     L   x y z        total         alpha         beta         nuclear
     -   - - -        -----         -----         ----         -------
     0   0 0 0      1.000000    -24.000000    -23.000000     48.000000

     1   1 0 0     -0.114436      0.067544     -0.181979      0.000000
     1   0 1 0      0.168807     -0.101139      0.269946     -0.000000
     1   0 0 1     -0.382986      0.228990     -0.611976     -0.000000

     2   2 0 0    -19.164831   -243.373618   -238.440843    462.649630
     2   1 1 0     -5.047068    105.344358    103.731854   -214.123279
     2   1 0 1     -3.432841    100.706092     99.344533   -203.483467
     2   0 2 0    -22.000245    -98.847418    -95.015068    171.862241
     2   0 1 1      2.034965    -48.188319    -47.241332     97.464616

 Total times  cpu:        9.1s     wall:        9.4s
