 Output coordinates in angstroms (scale by  1.889725989 to convert to a.u.)

  No.       Tag          Charge          X              Y              Z
 ---- ---------------- ---------- -------------- -------------- --------------
    1 C                    6.0000    -0.42652649     0.22027403     0.46991877
    2 C                    6.0000     0.42652213    -0.22026973    -0.46992663
    3 H                    1.0000    -0.51899301     1.30267594     0.63576438
    4 C                    6.0000    -1.30998561    -0.65127726     1.32484504
    5 C                    6.0000     1.30998859     0.65128282    -1.32484446
    6 H                    1.0000     0.51899042    -1.30267212    -0.63576792
    7 H                    1.0000    -1.10348887    -1.71196874     1.10553476
    8 C                    6.0000    -2.81075841    -0.35823353     1.12121296
    9 H                    1.0000    -1.06025319    -0.49723646     2.39071501
   10 H                    1.0000    -3.10663368    -0.54949836     0.07922274
   11 H                    1.0000    -3.04228590     0.69430577     1.34728322
   12 H                    1.0000    -3.43033768    -0.98831887     1.77684293
   13 H                    1.0000     1.10349559     1.71197461    -1.10553812
   14 H                    1.0000     1.06026037     0.49723959    -2.39071619
   15 C                    6.0000     2.81075825     0.35822549    -1.12120882
   16 H                    1.0000     3.10663119     0.54950226    -0.07921898
   17 H                    1.0000     3.43034587     0.98830276    -1.77683909
   18 H                    1.0000     3.04227823    -0.69431724    -1.34726413

         Total DFT energy =     -235.214318462409

                    DFT Final Alpha Molecular Orbital Analysis
                    ------------------------------------------

 Vector    1  Occ=1.000000D+00  E=-1.015725D+01

 Vector   47  Occ=0.000000D+00  E= 8.160764D-02

 Vector   48  Occ=0.000000D+00  E= 8.212750D-02

 Vector   49  Occ=0.000000D+00  E= 9.939296D-02

 Vector   50  Occ=0.000000D+00  E= 1.162819D-01

 Vector   51  Occ=0.000000D+00  E= 1.494715D-01

 Vector   52  Occ=0.000000D+00  E= 1.772538D-01

 Vector   53  Occ=0.000000D+00  E= 1.811971D-01

 Vector   54  Occ=0.000000D+00  E= 2.051952D-01

 Vector   55  Occ=0.000000D+00  E= 2.138072D-01

 Vector   56  Occ=0.000000D+00  E= 2.156276D-01

 Vector   57  Occ=0.000000D+00  E= 2.195687D-01

 Vector   58  Occ=0.000000D+00  E= 2.533205D-01

 Vector   59  Occ=0.000000D+00  E= 2.564072D-01

 Vector   60  Occ=0.000000D+00  E= 2.593663D-01

 Vector   61  Occ=0.000000D+00  E= 2.725344D-01

 Vector   62  Occ=0.000000D+00  E= 2.771509D-01

 Vector   63  Occ=0.000000D+00  E= 2.897644D-01

 Vector   64  Occ=0.000000D+00  E= 2.948566D-01

 Vector   65  Occ=0.000000D+00  E= 2.980056D-01

 Vector   66  Occ=0.000000D+00  E= 3.063678D-01

 Vector   67  Occ=0.000000D+00  E= 3.235388D-01

 Vector   68  Occ=0.000000D+00  E= 3.270318D-01

 Vector   69  Occ=0.000000D+00  E= 3.378258D-01

 Vector   70  Occ=0.000000D+00  E= 3.471175D-01

 Vector   71  Occ=0.000000D+00  E= 3.513421D-01

 Vector   72  Occ=0.000000D+00  E= 3.573324D-01

 Vector   73  Occ=0.000000D+00  E= 4.444836D-01

 Vector   74  Occ=0.000000D+00  E= 4.549303D-01

 Vector   75  Occ=0.000000D+00  E= 5.240012D-01

 Vector   76  Occ=0.000000D+00  E= 5.499927D-01

 Vector   77  Occ=0.000000D+00  E= 5.894338D-01

 Vector   78  Occ=0.000000D+00  E= 6.207299D-01

 Vector   79  Occ=0.000000D+00  E= 1.166876D+00

 Vector   80  Occ=0.000000D+00  E= 1.170771D+00

 Vector   81  Occ=0.000000D+00  E= 1.186354D+00

 Vector   82  Occ=0.000000D+00  E= 1.227134D+00

 Vector   83  Occ=0.000000D+00  E= 1.231985D+00

 Vector   84  Occ=0.000000D+00  E= 1.248610D+00

 Vector   85  Occ=0.000000D+00  E= 1.251679D+00

 Vector   86  Occ=0.000000D+00  E= 1.267378D+00

 Vector   87  Occ=0.000000D+00  E= 1.281764D+00

 Vector   88  Occ=0.000000D+00  E= 1.318766D+00

 Vector   89  Occ=0.000000D+00  E= 1.343299D+00

 Vector   90  Occ=0.000000D+00  E= 1.398208D+00

 Vector   91  Occ=0.000000D+00  E= 1.404618D+00

 Vector   92  Occ=0.000000D+00  E= 1.453131D+00

 Vector   93  Occ=0.000000D+00  E= 1.476831D+00

 Vector   94  Occ=0.000000D+00  E= 1.539564D+00

 Vector   95  Occ=0.000000D+00  E= 1.566176D+00

 Vector   96  Occ=0.000000D+00  E= 1.681232D+00

 Vector   97  Occ=0.000000D+00  E= 1.925319D+00

 Vector   98  Occ=0.000000D+00  E= 1.954142D+00

 Vector   99  Occ=0.000000D+00  E= 1.996061D+00

 Vector  100  Occ=0.000000D+00  E= 2.023404D+00

 Vector  101  Occ=0.000000D+00  E= 2.076256D+00

 Vector  102  Occ=0.000000D+00  E= 2.118572D+00

 Vector  103  Occ=0.000000D+00  E= 2.144628D+00

 Vector  104  Occ=0.000000D+00  E= 2.158473D+00

 Vector  105  Occ=0.000000D+00  E= 2.170219D+00

 Vector  106  Occ=0.000000D+00  E= 2.181192D+00

 Vector  107  Occ=0.000000D+00  E= 2.219458D+00

 Vector  108  Occ=0.000000D+00  E= 2.222502D+00

 Vector  109  Occ=0.000000D+00  E= 2.379365D+00

 Vector  110  Occ=0.000000D+00  E= 2.500965D+00

 Vector  111  Occ=0.000000D+00  E= 2.512850D+00

 Vector  112  Occ=0.000000D+00  E= 2.514795D+00

 Vector  113  Occ=0.000000D+00  E= 2.629526D+00

 Vector  114  Occ=0.000000D+00  E= 2.642158D+00

 Vector  115  Occ=0.000000D+00  E= 1.127236D+01

 Vector  116  Occ=0.000000D+00  E= 1.150333D+01

 Vector  117  Occ=0.000000D+00  E= 1.151814D+01

 Vector  118  Occ=0.000000D+00  E= 1.154652D+01

 Vector  119  Occ=0.000000D+00  E= 1.154755D+01

 Vector  120  Occ=0.000000D+00  E= 1.168096D+01

 Vector  121  Occ=0.000000D+00  E= 6.222163D+01

 Vector  122  Occ=0.000000D+00  E= 6.244865D+01

 Vector  123  Occ=0.000000D+00  E= 6.245963D+01

 Vector  124  Occ=0.000000D+00  E= 6.249104D+01

 Vector  125  Occ=0.000000D+00  E= 6.249528D+01

 Vector  126  Occ=0.000000D+00  E= 6.262535D+01

     Multipole analysis of the density
     ---------------------------------

     L   x y z        total         alpha         beta         nuclear
     -   - - -        -----         -----         ----         -------
     0   0 0 0      1.000000    -24.000000    -23.000000     48.000000

     1   1 0 0      0.000020      0.000007      0.000014     -0.000000
     1   0 1 0      0.000008     -0.000000      0.000008     -0.000000
     1   0 0 1     -0.000016      0.000001     -0.000017      0.000000

     2   2 0 0    -15.617801   -339.827441   -333.403219    657.612860
     2   1 1 0      2.243211    -54.076072    -53.112417    109.431699
     2   1 0 1     -7.139677    158.649843    155.957977   -321.747497
     2   0 2 0    -24.736855    -49.383884    -48.502025     73.149055
     2   0 1 1     -1.383416     35.741594     34.891153    -72.016163

 Total times  cpu:        8.5s     wall:        8.8s
