 Output coordinates in angstroms (scale by  1.889725989 to convert to a.u.)

  No.       Tag          Charge          X              Y              Z
 ---- ---------------- ---------- -------------- -------------- --------------
    1 C                    6.0000     0.11076816    -0.03318837    -0.04260944
    2 C                    6.0000     1.31972401    -0.39528439    -0.50818115
    3 C                    6.0000    -1.14609004    -0.16925047    -0.87118272
    4 C                    6.0000    -0.08170496     0.53700138     1.34396057
    5 H                    1.0000     1.44804850    -0.80632218    -1.51155811
    6 H                    1.0000     2.22189103    -0.29290471     0.09827535
    7 H                    1.0000    -0.93533527    -0.58903338    -1.86383561
    8 H                    1.0000    -1.63646062     0.80948984    -1.00771351
    9 H                    1.0000    -1.88058607    -0.82189755    -0.36959869
   10 H                    1.0000     0.86851227     0.60861333     1.88981206
   11 H                    1.0000    -0.77265462    -0.08773246     1.93500258
   12 H                    1.0000    -0.52959836     1.54411806     1.29769229

         Total DFT energy =     -156.678922831371

                    DFT Final Alpha Molecular Orbital Analysis
                    ------------------------------------------

 Vector    1  Occ=1.000000D+00  E=-1.019921D+01

 Vector    5  Occ=1.000000D+00  E=-9.911670D-01

 Vector    6  Occ=1.000000D+00  E=-8.613850D-01

 Vector    7  Occ=1.000000D+00  E=-8.496933D-01

 Vector    8  Occ=1.000000D+00  E=-7.105926D-01

 Vector    9  Occ=1.000000D+00  E=-6.520438D-01

 Vector   10  Occ=1.000000D+00  E=-6.320024D-01

 Vector   11  Occ=1.000000D+00  E=-6.083768D-01

 Vector   12  Occ=1.000000D+00  E=-5.547523D-01

 Vector   13  Occ=1.000000D+00  E=-5.524919D-01

 Vector   14  Occ=1.000000D+00  E=-5.520753D-01

 Vector   15  Occ=1.000000D+00  E=-5.287647D-01

 Vector   16  Occ=0.000000D+00  E=-4.567066D-01

 Vector   17  Occ=0.000000D+00  E=-2.511587D-01

 Vector   18  Occ=0.000000D+00  E=-1.573635D-01

 Vector   19  Occ=0.000000D+00  E=-1.169194D-01

 Vector   20  Occ=0.000000D+00  E=-1.166702D-01

 Vector   21  Occ=0.000000D+00  E=-9.863369D-02

 Vector   22  Occ=0.000000D+00  E=-8.713824D-02

 Vector   23  Occ=0.000000D+00  E=-8.364112D-02

 Vector   24  Occ=0.000000D+00  E=-7.002116D-02

 Vector   25  Occ=0.000000D+00  E=-5.595530D-02

 Vector   26  Occ=0.000000D+00  E=-3.498554D-02

 Vector   27  Occ=0.000000D+00  E=-9.146886D-03

 Vector   28  Occ=0.000000D+00  E=-8.600756D-03

 Vector   29  Occ=0.000000D+00  E= 4.947371D-03

 Vector   30  Occ=0.000000D+00  E= 2.743386D-02

 Vector   31  Occ=0.000000D+00  E= 4.441517D-02

 Vector   32  Occ=0.000000D+00  E= 7.684260D-02

 Vector   33  Occ=0.000000D+00  E= 7.686120D-02

 Vector   34  Occ=0.000000D+00  E= 1.058458D-01

 Vector   35  Occ=0.000000D+00  E= 1.238094D-01

 Vector   36  Occ=0.000000D+00  E= 1.370452D-01

 Vector   37  Occ=0.000000D+00  E= 1.391180D-01

 Vector   38  Occ=0.000000D+00  E= 1.782409D-01

 Vector   39  Occ=0.000000D+00  E= 1.949925D-01

 Vector   40  Occ=0.000000D+00  E= 2.413475D-01

 Vector   41  Occ=0.000000D+00  E= 2.553451D-01

 Vector   42  Occ=0.000000D+00  E= 2.571778D-01

 Vector   43  Occ=0.000000D+00  E= 2.593576D-01

 Vector   44  Occ=0.000000D+00  E= 2.666501D-01

 Vector   45  Occ=0.000000D+00  E= 2.805933D-01

 Vector   46  Occ=0.000000D+00  E= 2.934421D-01

 Vector   47  Occ=0.000000D+00  E= 3.115165D-01

 Vector   48  Occ=0.000000D+00  E= 3.263255D-01

 Vector   49  Occ=0.000000D+00  E= 4.266627D-01

 Vector   50  Occ=0.000000D+00  E= 4.499251D-01

 Vector   51  Occ=0.000000D+00  E= 4.700981D-01

 Vector   52  Occ=0.000000D+00  E= 6.415939D-01

 Vector   53  Occ=0.000000D+00  E= 1.096958D+00

 Vector   54  Occ=0.000000D+00  E= 1.145114D+00

 Vector   55  Occ=0.000000D+00  E= 1.169994D+00

 Vector   56  Occ=0.000000D+00  E= 1.192663D+00

 Vector   57  Occ=0.000000D+00  E= 1.198243D+00

 Vector   58  Occ=0.000000D+00  E= 1.243027D+00

 Vector   59  Occ=0.000000D+00  E= 1.268598D+00

 Vector   60  Occ=0.000000D+00  E= 1.342702D+00

 Vector   61  Occ=0.000000D+00  E= 1.355504D+00

 Vector   62  Occ=0.000000D+00  E= 1.422435D+00

 Vector   63  Occ=0.000000D+00  E= 1.516163D+00

 Vector   64  Occ=0.000000D+00  E= 1.621760D+00

 Vector   65  Occ=0.000000D+00  E= 1.875460D+00

 Vector   66  Occ=0.000000D+00  E= 1.936082D+00

 Vector   67  Occ=0.000000D+00  E= 1.985892D+00

 Vector   68  Occ=0.000000D+00  E= 2.085448D+00

 Vector   69  Occ=0.000000D+00  E= 2.104652D+00

 Vector   70  Occ=0.000000D+00  E= 2.138141D+00

 Vector   71  Occ=0.000000D+00  E= 2.141882D+00

 Vector   72  Occ=0.000000D+00  E= 2.198546D+00

 Vector   73  Occ=0.000000D+00  E= 2.204362D+00

 Vector   74  Occ=0.000000D+00  E= 2.422635D+00

 Vector   75  Occ=0.000000D+00  E= 2.547279D+00

 Vector   76  Occ=0.000000D+00  E= 2.692887D+00

 Vector   77  Occ=0.000000D+00  E= 1.119621D+01

 Vector   78  Occ=0.000000D+00  E= 1.146328D+01

 Vector   79  Occ=0.000000D+00  E= 1.152420D+01

 Vector   80  Occ=0.000000D+00  E= 1.157600D+01

 Vector   81  Occ=0.000000D+00  E= 6.214221D+01

 Vector   82  Occ=0.000000D+00  E= 6.241380D+01

 Vector   83  Occ=0.000000D+00  E= 6.247114D+01

 Vector   84  Occ=0.000000D+00  E= 6.251435D+01

     Multipole analysis of the density
     ---------------------------------

     L   x y z        total         alpha         beta         nuclear
     -   - - -        -----         -----         ----         -------
     0   0 0 0      1.000000    -16.000000    -15.000000     32.000000

     1   1 0 0      0.268960     -0.408196      0.677156     -0.000000
     1   0 1 0     -0.080450      0.122280     -0.202730      0.000000
     1   0 0 1     -0.103600      0.157180     -0.260780      0.000000

     2   2 0 0    -11.364408    -69.225152    -64.268660    122.129405
     2   1 1 0     -1.018823      6.223141      5.325827    -12.567790
     2   1 0 1     -0.377196     -4.649922     -5.924759     10.197484
     2   0 2 0    -16.415060    -23.774892    -21.288354     28.648187
     2   0 1 1      1.633794    -19.252326    -19.069774     39.955894

 Total times  cpu:        3.5s     wall:        3.7s
