 Output coordinates in angstroms (scale by  1.889725989 to convert to a.u.)

  No.       Tag          Charge          X              Y              Z
 ---- ---------------- ---------- -------------- -------------- --------------
    1 C                    6.0000     0.61546000     1.06018640    -0.10028699
    2 C                    6.0000     1.75640912     0.63063739    -0.66249936
    3 H                    1.0000     0.37301903     2.12924042    -0.14638717
    4 C                    6.0000    -0.40017185     0.22125248     0.58785931
    5 H                    1.0000     2.43441174     1.31670018    -1.17223681
    6 H                    1.0000     2.05826837    -0.41837068    -0.63063593
    7 C                    6.0000    -0.42779126    -1.29624561     0.46359400
    8 C                    6.0000    -1.50698920    -0.47297638    -0.22909987
    9 H                    1.0000    -0.73856893     0.62383387     1.54613811
   10 H                    1.0000    -1.44779451    -0.37778950    -1.31246928
   11 H                    1.0000    -2.51712340    -0.48299086     0.17852655
   12 H                    1.0000    -0.70417372    -1.87250433     1.34530863
   13 H                    1.0000     0.32046070    -1.77524483    -0.16564681

         Total DFT energy =     -194.704829063246

                    DFT Final Alpha Molecular Orbital Analysis
                    ------------------------------------------

 Vector    1  Occ=1.000000D+00  E=-1.015987D+01

 Vector   20  Occ=0.000000D+00  E=-2.480707D-01

 Vector   21  Occ=0.000000D+00  E=-1.448309D-01

 Vector   22  Occ=0.000000D+00  E=-1.370411D-01

 Vector   23  Occ=0.000000D+00  E=-1.205478D-01

 Vector   24  Occ=0.000000D+00  E=-1.122563D-01

 Vector   25  Occ=0.000000D+00  E=-1.015747D-01

 Vector   26  Occ=0.000000D+00  E=-8.665808D-02

 Vector   27  Occ=0.000000D+00  E=-7.067842D-02

 Vector   28  Occ=0.000000D+00  E=-6.621260D-02

 Vector   29  Occ=0.000000D+00  E=-3.531655D-02

 Vector   30  Occ=0.000000D+00  E=-2.144489D-02

 Vector   31  Occ=0.000000D+00  E=-1.302838D-02

 Vector   32  Occ=0.000000D+00  E=-6.157603D-03

 Vector   33  Occ=0.000000D+00  E= 3.979351D-03

 Vector   34  Occ=0.000000D+00  E= 3.541141D-02

 Vector   35  Occ=0.000000D+00  E= 4.547105D-02

 Vector   36  Occ=0.000000D+00  E= 6.974974D-02

 Vector   37  Occ=0.000000D+00  E= 7.475855D-02

 Vector   38  Occ=0.000000D+00  E= 9.413408D-02

 Vector   39  Occ=0.000000D+00  E= 1.085629D-01

 Vector   40  Occ=0.000000D+00  E= 1.179216D-01

 Vector   41  Occ=0.000000D+00  E= 1.414191D-01

 Vector   42  Occ=0.000000D+00  E= 1.503352D-01

 Vector   43  Occ=0.000000D+00  E= 1.543462D-01

 Vector   44  Occ=0.000000D+00  E= 1.670053D-01

 Vector   45  Occ=0.000000D+00  E= 1.943425D-01

 Vector   46  Occ=0.000000D+00  E= 2.102964D-01

 Vector   47  Occ=0.000000D+00  E= 2.171031D-01

 Vector   48  Occ=0.000000D+00  E= 2.212610D-01

 Vector   49  Occ=0.000000D+00  E= 2.373088D-01

 Vector   50  Occ=0.000000D+00  E= 2.651556D-01

 Vector   51  Occ=0.000000D+00  E= 2.729741D-01

 Vector   52  Occ=0.000000D+00  E= 2.987614D-01

 Vector   53  Occ=0.000000D+00  E= 3.031788D-01

 Vector   54  Occ=0.000000D+00  E= 3.236089D-01

 Vector   55  Occ=0.000000D+00  E= 3.335573D-01

 Vector   56  Occ=0.000000D+00  E= 4.129849D-01

 Vector   57  Occ=0.000000D+00  E= 4.177229D-01

 Vector   58  Occ=0.000000D+00  E= 4.341963D-01

 Vector   59  Occ=0.000000D+00  E= 4.534083D-01

 Vector   60  Occ=0.000000D+00  E= 4.925856D-01

 Vector   61  Occ=0.000000D+00  E= 5.412436D-01

 Vector   62  Occ=0.000000D+00  E= 1.140722D+00

 Vector   63  Occ=0.000000D+00  E= 1.143803D+00

 Vector   64  Occ=0.000000D+00  E= 1.166789D+00

 Vector   65  Occ=0.000000D+00  E= 1.175405D+00

 Vector   66  Occ=0.000000D+00  E= 1.214677D+00

 Vector   67  Occ=0.000000D+00  E= 1.243402D+00

 Vector   68  Occ=0.000000D+00  E= 1.259106D+00

 Vector   69  Occ=0.000000D+00  E= 1.295771D+00

 Vector   70  Occ=0.000000D+00  E= 1.336680D+00

 Vector   71  Occ=0.000000D+00  E= 1.359964D+00

 Vector   72  Occ=0.000000D+00  E= 1.370278D+00

 Vector   73  Occ=0.000000D+00  E= 1.451834D+00

 Vector   74  Occ=0.000000D+00  E= 1.464033D+00

 Vector   75  Occ=0.000000D+00  E= 1.537146D+00

 Vector   76  Occ=0.000000D+00  E= 1.601827D+00

 Vector   77  Occ=0.000000D+00  E= 1.914529D+00

 Vector   78  Occ=0.000000D+00  E= 1.963743D+00

 Vector   79  Occ=0.000000D+00  E= 2.001637D+00

 Vector   80  Occ=0.000000D+00  E= 2.076932D+00

 Vector   81  Occ=0.000000D+00  E= 2.096637D+00

 Vector   82  Occ=0.000000D+00  E= 2.125321D+00

 Vector   83  Occ=0.000000D+00  E= 2.210072D+00

 Vector   84  Occ=0.000000D+00  E= 2.245496D+00

 Vector   85  Occ=0.000000D+00  E= 2.362509D+00

 Vector   86  Occ=0.000000D+00  E= 2.394808D+00

 Vector   87  Occ=0.000000D+00  E= 2.439517D+00

 Vector   88  Occ=0.000000D+00  E= 2.492759D+00

 Vector   89  Occ=0.000000D+00  E= 2.529053D+00

 Vector   90  Occ=0.000000D+00  E= 1.123931D+01

 Vector   91  Occ=0.000000D+00  E= 1.144065D+01

 Vector   92  Occ=0.000000D+00  E= 1.146385D+01

 Vector   93  Occ=0.000000D+00  E= 1.153047D+01

 Vector   94  Occ=0.000000D+00  E= 1.159973D+01

 Vector   95  Occ=0.000000D+00  E= 6.218790D+01

 Vector   96  Occ=0.000000D+00  E= 6.238500D+01

 Vector   97  Occ=0.000000D+00  E= 6.241109D+01

 Vector   98  Occ=0.000000D+00  E= 6.246646D+01

 Vector   99  Occ=0.000000D+00  E= 6.254513D+01

     Multipole analysis of the density
     ---------------------------------

     L   x y z        total         alpha         beta         nuclear
     -   - - -        -----         -----         ----         -------
     0   0 0 0      1.000000    -19.000000    -18.000000     38.000000

     1   1 0 0      0.334373     -0.235718      0.570091     -0.000000
     1   0 1 0      0.337973     -0.114532      0.452505     -0.000000
     1   0 0 1     -0.178472      0.104231     -0.282703      0.000000

     2   2 0 0    -13.017618   -110.839973   -103.391305    201.213659
     2   1 1 0      2.739154    -40.743519    -38.021999     81.504672
     2   1 0 1     -3.228303     21.863201     20.546012    -45.637516
     2   0 2 0    -16.682493    -71.705653    -68.939206    123.962366
     2   0 1 1     -1.284193     13.585021     12.849355    -27.718569

 Total times  cpu:        6.0s     wall:        6.3s
