 Output coordinates in angstroms (scale by  1.889725989 to convert to a.u.)

  No.       Tag          Charge          X              Y              Z
 ---- ---------------- ---------- -------------- -------------- --------------
    1 C                    6.0000    -0.16967935     0.94344181     0.03403180
    2 C                    6.0000     1.16164306     1.05970556    -0.09819161
    3 H                    1.0000    -0.83958308     1.79849712     0.11701081
    4 O                    8.0000    -0.92465444    -0.22484646     0.08919552
    5 H                    1.0000     1.60669851     2.05252133    -0.12509637
    6 H                    1.0000     1.83895105     0.21163313    -0.18190575
    7 C                    6.0000    -0.18462767    -1.48112696    -0.00789798
    8 H                    1.0000    -0.93870849    -2.27058730     0.05443876
    9 H                    1.0000     0.53346294    -1.57853432     0.82197953
   10 H                    1.0000     0.35239834    -1.54688081    -0.96764432

         Total DFT energy =     -192.561863983458

                    DFT Final Alpha Molecular Orbital Analysis
                    ------------------------------------------

 Vector    1  Occ=1.000000D+00  E=-1.910633D+01

 Vector   77  Occ=0.000000D+00  E= 6.244125D+01

 Vector   78  Occ=0.000000D+00  E= 1.175284D+02

 Vector    1  Occ=1.000000D+00  E=-1.909673D+01

 Vector    2  Occ=1.000000D+00  E=-1.023110D+01

 Vector    3  Occ=1.000000D+00  E=-1.017670D+01

 Vector    4  Occ=1.000000D+00  E=-1.016470D+01

 Vector    5  Occ=1.000000D+00  E=-1.246954D+00

 Vector    6  Occ=1.000000D+00  E=-9.643285D-01

 Vector    7  Occ=1.000000D+00  E=-8.872596D-01

 Vector    8  Occ=1.000000D+00  E=-7.598916D-01

 Vector    9  Occ=1.000000D+00  E=-7.136004D-01

 Vector   10  Occ=1.000000D+00  E=-6.884170D-01

 Vector   11  Occ=1.000000D+00  E=-6.483711D-01

 Vector   12  Occ=1.000000D+00  E=-6.081996D-01

 Vector   13  Occ=1.000000D+00  E=-5.883570D-01

 Vector   14  Occ=1.000000D+00  E=-5.494263D-01

 Vector   15  Occ=1.000000D+00  E=-5.394865D-01

 Vector   16  Occ=0.000000D+00  E=-4.562020D-01

 Vector   17  Occ=0.000000D+00  E=-2.588583D-01

 Vector   18  Occ=0.000000D+00  E=-1.885284D-01

 Vector   19  Occ=0.000000D+00  E=-1.573812D-01

 Vector   20  Occ=0.000000D+00  E=-1.380510D-01

 Vector   21  Occ=0.000000D+00  E=-1.125045D-01

 Vector   22  Occ=0.000000D+00  E=-1.032543D-01

 Vector   23  Occ=0.000000D+00  E=-9.174028D-02

 Vector   24  Occ=0.000000D+00  E=-7.499412D-02

 Vector   25  Occ=0.000000D+00  E=-3.851648D-02

 Vector   26  Occ=0.000000D+00  E=-8.545962D-03

 Vector   27  Occ=0.000000D+00  E= 9.478414D-04

 Vector   28  Occ=0.000000D+00  E= 2.572794D-02

 Vector   29  Occ=0.000000D+00  E= 3.159872D-02

 Vector   30  Occ=0.000000D+00  E= 4.963196D-02

 Vector   31  Occ=0.000000D+00  E= 6.696566D-02

 Vector   32  Occ=0.000000D+00  E= 8.821955D-02

 Vector   33  Occ=0.000000D+00  E= 8.944954D-02

 Vector   34  Occ=0.000000D+00  E= 1.656667D-01

 Vector   35  Occ=0.000000D+00  E= 1.837433D-01

 Vector   36  Occ=0.000000D+00  E= 2.063411D-01

 Vector   37  Occ=0.000000D+00  E= 2.292766D-01

 Vector   38  Occ=0.000000D+00  E= 2.460613D-01

 Vector   39  Occ=0.000000D+00  E= 2.715237D-01

 Vector   40  Occ=0.000000D+00  E= 2.840288D-01

 Vector   41  Occ=0.000000D+00  E= 2.910567D-01

 Vector   42  Occ=0.000000D+00  E= 3.110150D-01

 Vector   43  Occ=0.000000D+00  E= 3.310003D-01

 Vector   44  Occ=0.000000D+00  E= 3.677296D-01

 Vector   45  Occ=0.000000D+00  E= 3.902793D-01

 Vector   46  Occ=0.000000D+00  E= 4.539984D-01

 Vector   47  Occ=0.000000D+00  E= 5.131502D-01

 Vector   48  Occ=0.000000D+00  E= 9.337773D-01

 Vector   49  Occ=0.000000D+00  E= 1.103023D+00

 Vector   50  Occ=0.000000D+00  E= 1.128565D+00

 Vector   51  Occ=0.000000D+00  E= 1.147387D+00

 Vector   52  Occ=0.000000D+00  E= 1.174289D+00

 Vector   53  Occ=0.000000D+00  E= 1.216882D+00

 Vector   54  Occ=0.000000D+00  E= 1.219170D+00

 Vector   55  Occ=0.000000D+00  E= 1.245881D+00

 Vector   56  Occ=0.000000D+00  E= 1.377449D+00

 Vector   57  Occ=0.000000D+00  E= 1.477786D+00

 Vector   58  Occ=0.000000D+00  E= 1.877922D+00

 Vector   59  Occ=0.000000D+00  E= 1.898297D+00

 Vector   60  Occ=0.000000D+00  E= 2.007427D+00

 Vector   61  Occ=0.000000D+00  E= 2.049395D+00

 Vector   62  Occ=0.000000D+00  E= 2.075454D+00

 Vector   63  Occ=0.000000D+00  E= 2.147657D+00

 Vector   64  Occ=0.000000D+00  E= 2.168881D+00

 Vector   65  Occ=0.000000D+00  E= 2.305560D+00

 Vector   66  Occ=0.000000D+00  E= 2.312442D+00

 Vector   67  Occ=0.000000D+00  E= 2.394656D+00

 Vector   68  Occ=0.000000D+00  E= 2.504263D+00

 Vector   69  Occ=0.000000D+00  E= 2.578040D+00

 Vector   70  Occ=0.000000D+00  E= 4.319959D+00

 Vector   71  Occ=0.000000D+00  E= 1.111581D+01

 Vector   72  Occ=0.000000D+00  E= 1.138095D+01

 Vector   73  Occ=0.000000D+00  E= 1.150965D+01

 Vector   74  Occ=0.000000D+00  E= 2.160746D+01

 Vector   75  Occ=0.000000D+00  E= 6.206152D+01

 Vector   76  Occ=0.000000D+00  E= 6.232377D+01

 Vector   77  Occ=0.000000D+00  E= 6.244639D+01

 Vector   78  Occ=0.000000D+00  E= 1.175397D+02

     Multipole analysis of the density
     ---------------------------------

     L   x y z        total         alpha         beta         nuclear
     -   - - -        -----         -----         ----         -------
     0   0 0 0      1.000000    -16.000000    -15.000000     32.000000

     1   1 0 0      0.916433      0.203856      0.712577      0.000000
     1   0 1 0      0.293933     -0.273106      0.567038      0.000000
     1   0 0 1     -0.087147     -0.025401     -0.061745      0.000000

     2   2 0 0    -13.771878    -50.418533    -46.458106     83.104761
     2   1 1 0      1.738606    -22.897081    -20.540693     45.176379
     2   1 0 1     -0.292935      3.435151      3.262025     -6.990111
     2   0 2 0     -7.615061    -82.554777    -79.250348    154.190064
     2   0 1 1     -0.007060      1.050244      0.839128     -1.896432

 Total times  cpu:        3.5s     wall:        3.7s
