 Output coordinates in angstroms (scale by  1.889725989 to convert to a.u.)

  No.       Tag          Charge          X              Y              Z
 ---- ---------------- ---------- -------------- -------------- --------------
    1 C                    6.0000     0.09483265     1.49648796     0.01671272
    2 C                    6.0000     1.42635536     1.61839195    -0.11397685
    3 H                    1.0000    -0.57484646     2.35220625     0.09901637
    4 O                    8.0000    -0.65764650     0.32768037     0.07081099
    5 H                    1.0000     1.86659530     2.61354565    -0.13987019
    6 H                    1.0000     2.10800350     0.77393195    -0.19732769
    7 C                    6.0000     0.08098051    -0.94205474    -0.02522139
    8 C                    6.0000    -0.93680533    -2.06444295     0.05832697
    9 H                    1.0000     0.81283634    -0.99387307     0.79959399
   10 H                    1.0000     0.63347192    -0.96356494    -0.98068901
   11 H                    1.0000    -1.48402938    -2.02281641     1.00959054
   12 H                    1.0000    -0.43013608    -3.03847230    -0.00937091
   13 H                    1.0000    -1.66290232    -1.99269342    -0.76247962

         Total DFT energy =     -231.834409425940

                    DFT Final Alpha Molecular Orbital Analysis
                    ------------------------------------------

 Vector    1  Occ=1.000000D+00  E=-1.909228D+01

 Vector   20  Occ=0.000000D+00  E=-4.462980D-01

 Vector   21  Occ=0.000000D+00  E=-2.499691D-01

 Vector   22  Occ=0.000000D+00  E=-1.716517D-01

 Vector   23  Occ=0.000000D+00  E=-1.504662D-01

 Vector   24  Occ=0.000000D+00  E=-1.312740D-01

 Vector   25  Occ=0.000000D+00  E=-1.177956D-01

 Vector   26  Occ=0.000000D+00  E=-9.466478D-02

 Vector   27  Occ=0.000000D+00  E=-9.219364D-02

 Vector   28  Occ=0.000000D+00  E=-6.576258D-02

 Vector   29  Occ=0.000000D+00  E=-5.350631D-02

 Vector   30  Occ=0.000000D+00  E=-3.546778D-02

 Vector   31  Occ=0.000000D+00  E=-3.448316D-02

 Vector   32  Occ=0.000000D+00  E=-1.831123D-02

 Vector   33  Occ=0.000000D+00  E= 5.980416D-03

 Vector   34  Occ=0.000000D+00  E= 1.365396D-02

 Vector   35  Occ=0.000000D+00  E= 3.744766D-02

 Vector   36  Occ=0.000000D+00  E= 5.756207D-02

 Vector   37  Occ=0.000000D+00  E= 6.149396D-02

 Vector   38  Occ=0.000000D+00  E= 8.381997D-02

 Vector   39  Occ=0.000000D+00  E= 9.054232D-02

 Vector   40  Occ=0.000000D+00  E= 9.593422D-02

 Vector   41  Occ=0.000000D+00  E= 1.017837D-01

 Vector   42  Occ=0.000000D+00  E= 1.189868D-01

 Vector   43  Occ=0.000000D+00  E= 1.696539D-01

 Vector   44  Occ=0.000000D+00  E= 2.130849D-01

 Vector   45  Occ=0.000000D+00  E= 2.262286D-01

 Vector   46  Occ=0.000000D+00  E= 2.347663D-01

 Vector   47  Occ=0.000000D+00  E= 2.394514D-01

 Vector   48  Occ=0.000000D+00  E= 2.667191D-01

 Vector   49  Occ=0.000000D+00  E= 2.853614D-01

 Vector   50  Occ=0.000000D+00  E= 3.000148D-01

 Vector   51  Occ=0.000000D+00  E= 3.008805D-01

 Vector   52  Occ=0.000000D+00  E= 3.079226D-01

 Vector   53  Occ=0.000000D+00  E= 3.266298D-01

 Vector   54  Occ=0.000000D+00  E= 3.693027D-01

 Vector   55  Occ=0.000000D+00  E= 3.755156D-01

 Vector   56  Occ=0.000000D+00  E= 3.863192D-01

 Vector   57  Occ=0.000000D+00  E= 4.151555D-01

 Vector   58  Occ=0.000000D+00  E= 4.939560D-01

 Vector   59  Occ=0.000000D+00  E= 5.317932D-01

 Vector   60  Occ=0.000000D+00  E= 5.994804D-01

 Vector   61  Occ=0.000000D+00  E= 9.638875D-01

 Vector   62  Occ=0.000000D+00  E= 1.114713D+00

 Vector   63  Occ=0.000000D+00  E= 1.124285D+00

 Vector   64  Occ=0.000000D+00  E= 1.144129D+00

 Vector   65  Occ=0.000000D+00  E= 1.183446D+00

 Vector   66  Occ=0.000000D+00  E= 1.225872D+00

 Vector   67  Occ=0.000000D+00  E= 1.244935D+00

 Vector   68  Occ=0.000000D+00  E= 1.285605D+00

 Vector   69  Occ=0.000000D+00  E= 1.294854D+00

 Vector   70  Occ=0.000000D+00  E= 1.363655D+00

 Vector   71  Occ=0.000000D+00  E= 1.380331D+00

 Vector   72  Occ=0.000000D+00  E= 1.474872D+00

 Vector   73  Occ=0.000000D+00  E= 1.505497D+00

 Vector   74  Occ=0.000000D+00  E= 1.888406D+00

 Vector   75  Occ=0.000000D+00  E= 1.952857D+00

 Vector   76  Occ=0.000000D+00  E= 2.016510D+00

 Vector   77  Occ=0.000000D+00  E= 2.054557D+00

 Vector   78  Occ=0.000000D+00  E= 2.085925D+00

 Vector   79  Occ=0.000000D+00  E= 2.132354D+00

 Vector   80  Occ=0.000000D+00  E= 2.136023D+00

 Vector   81  Occ=0.000000D+00  E= 2.156946D+00

 Vector   82  Occ=0.000000D+00  E= 2.164411D+00

 Vector   83  Occ=0.000000D+00  E= 2.334051D+00

 Vector   84  Occ=0.000000D+00  E= 2.363274D+00

 Vector   85  Occ=0.000000D+00  E= 2.456491D+00

 Vector   86  Occ=0.000000D+00  E= 2.520642D+00

 Vector   87  Occ=0.000000D+00  E= 2.572903D+00

 Vector   88  Occ=0.000000D+00  E= 2.679436D+00

 Vector   89  Occ=0.000000D+00  E= 4.351058D+00

 Vector   90  Occ=0.000000D+00  E= 1.114170D+01

 Vector   91  Occ=0.000000D+00  E= 1.142300D+01

 Vector   92  Occ=0.000000D+00  E= 1.152228D+01

 Vector   93  Occ=0.000000D+00  E= 1.154037D+01

 Vector   94  Occ=0.000000D+00  E= 2.163835D+01

 Vector   95  Occ=0.000000D+00  E= 6.208701D+01

 Vector   96  Occ=0.000000D+00  E= 6.236380D+01

 Vector   97  Occ=0.000000D+00  E= 6.245922D+01

 Vector   98  Occ=0.000000D+00  E= 6.248918D+01

 Vector   99  Occ=0.000000D+00  E= 1.175719D+02

     Multipole analysis of the density
     ---------------------------------

     L   x y z        total         alpha         beta         nuclear
     -   - - -        -----         -----         ----         -------
     0   0 0 0      1.000000    -20.000000    -19.000000     40.000000

     1   1 0 0      1.173322      0.093774      1.079548      0.000000
     1   0 1 0      0.952212     -0.424656      1.376868      0.000000
     1   0 0 1     -0.100504     -0.016533     -0.083971      0.000000

     2   2 0 0    -17.009901    -74.265420    -69.512836    126.768355
     2   1 1 0      4.109213    -63.197508    -59.416396    126.723116
     2   1 0 1     -0.388945      4.576878      4.355151     -9.320973
     2   0 2 0     -9.121616   -173.800297   -167.719531    332.398211
     2   0 1 1     -0.189220      3.593353      3.289718     -7.072291

 Total times  cpu:        5.6s     wall:        5.9s
