 Output coordinates in angstroms (scale by  1.889725989 to convert to a.u.)

  No.       Tag          Charge          X              Y              Z
 ---- ---------------- ---------- -------------- -------------- --------------
    1 O                    8.0000    -0.06590047     0.07367940    -0.05707045
    2 H                    1.0000     0.91754204     0.07085057    -0.05487930
    3 H                    1.0000    -0.39033830    -0.66028576     0.51144292

         Total DFT energy =      -76.345150780738

                       DFT Final Molecular Orbital Analysis
                       ------------------------------------

 Vector    1  Occ=2.000000D+00  E=-1.875667D+01

 Vector    2  Occ=2.000000D+00  E=-9.317569D-01

 Vector    3  Occ=2.000000D+00  E=-4.910178D-01

 Vector    4  Occ=2.000000D+00  E=-3.098709D-01

 Vector    5  Occ=2.000000D+00  E=-2.505586D-01

 Vector    6  Occ=0.000000D+00  E=-1.010639D-02

 Vector    7  Occ=0.000000D+00  E= 6.390039D-02

 Vector    8  Occ=0.000000D+00  E= 3.321089D-01

 Vector    9  Occ=0.000000D+00  E= 3.491495D-01

 Vector   10  Occ=0.000000D+00  E= 3.992383D-01

 Vector   11  Occ=0.000000D+00  E= 4.021135D-01

 Vector   12  Occ=0.000000D+00  E= 5.307304D-01

 Vector   13  Occ=0.000000D+00  E= 8.376068D-01

 Vector   14  Occ=0.000000D+00  E= 2.002410D+00

 Vector   15  Occ=0.000000D+00  E= 2.053422D+00

 Vector   16  Occ=0.000000D+00  E= 2.436776D+00

 Vector   17  Occ=0.000000D+00  E= 2.577406D+00

 Vector   18  Occ=0.000000D+00  E= 2.800700D+00

 Vector   19  Occ=0.000000D+00  E= 4.387249D+00

 Vector   20  Occ=0.000000D+00  E= 2.168385D+01

 Vector   21  Occ=0.000000D+00  E= 1.176162D+02

     Multipole analysis of the density
     ---------------------------------

     L   x y z        total         alpha         beta         nuclear
     -   - - -        -----         -----         ----         -------
     0   0 0 0     -0.000000     -5.000000     -5.000000     10.000000

     1   1 0 0      0.560751      0.280376      0.280376     -0.000000
     1   0 1 0     -0.626943     -0.313471     -0.313471      0.000000
     1   0 0 1      0.485616      0.242808      0.242808      0.000000

     2   2 0 0     -3.716533     -3.695562     -3.695562      3.674591
     2   1 1 0      0.698109     -0.157857     -0.157857      1.013822
     2   1 0 1     -0.540740      0.122272      0.122272     -0.785284
     2   0 2 0     -4.878346     -3.304132     -3.304132      1.729918
     2   0 1 1     -0.693819      0.323069      0.323069     -1.339956

 Total times  cpu:        0.2s     wall:        0.4s
