 Output coordinates in angstroms (scale by  1.889725989 to convert to a.u.)

  No.       Tag          Charge          X              Y              Z
 ---- ---------------- ---------- -------------- -------------- --------------
    1 O                    8.0000     0.00000040    -0.00000060    -0.00000716
    2 H                    1.0000     0.96928937    -0.15553414     0.04424473
    3 H                    1.0000    -0.34721883     0.91486873    -0.09013876
    4 H                    1.0000    -0.62207372    -0.75932981     0.04595131

         Total DFT energy =      -76.630924021357

                       DFT Final Molecular Orbital Analysis
                       ------------------------------------

 Vector    1  Occ=2.000000D+00  E=-1.917917D+01

 Vector    2  Occ=2.000000D+00  E=-1.346534D+00

 Vector    3  Occ=2.000000D+00  E=-8.914112D-01

 Vector    4  Occ=2.000000D+00  E=-8.914108D-01

 Vector    5  Occ=2.000000D+00  E=-6.562642D-01

 Vector    6  Occ=0.000000D+00  E=-3.004383D-01

 Vector    7  Occ=0.000000D+00  E=-2.002305D-01

 Vector    8  Occ=0.000000D+00  E=-2.002303D-01

 Vector    9  Occ=0.000000D+00  E= 2.779004D-02

 Vector   10  Occ=0.000000D+00  E= 2.779058D-02

 Vector   11  Occ=0.000000D+00  E= 4.885187D-02

 Vector   12  Occ=0.000000D+00  E= 7.804847D-02

 Vector   13  Occ=0.000000D+00  E= 2.200415D-01

 Vector   14  Occ=0.000000D+00  E= 2.200417D-01

 Vector   15  Occ=0.000000D+00  E= 5.262003D-01

 Vector   16  Occ=0.000000D+00  E= 1.698168D+00

 Vector   17  Occ=0.000000D+00  E= 1.723416D+00

 Vector   18  Occ=0.000000D+00  E= 1.723417D+00

 Vector   19  Occ=0.000000D+00  E= 2.042567D+00

 Vector   20  Occ=0.000000D+00  E= 2.464592D+00

 Vector   21  Occ=0.000000D+00  E= 2.464594D+00

 Vector   22  Occ=0.000000D+00  E= 4.021378D+00

 Vector   23  Occ=0.000000D+00  E= 2.130034D+01

 Vector   24  Occ=0.000000D+00  E= 1.172348D+02

     Multipole analysis of the density
     ---------------------------------

     L   x y z        total         alpha         beta         nuclear
     -   - - -        -----         -----         ----         -------
     0   0 0 0      1.000000     -5.000000     -5.000000     11.000000

     1   1 0 0     -0.000003     -0.000002     -0.000002     -0.000000
     1   0 1 0      0.000007      0.000003      0.000003      0.000000
     1   0 0 1      0.000075      0.000038      0.000038     -0.000000

     2   2 0 0     -1.562988     -3.365264     -3.365264      5.167539
     2   1 1 0      0.009614     -0.002231     -0.002231      0.014077
     2   1 0 1      0.111212     -0.025812     -0.025812      0.162836
     2   0 2 0     -1.585673     -3.359999     -3.359999      5.134324
     2   0 1 1     -0.303009      0.070328      0.070328     -0.443665

 Total times  cpu:        0.2s     wall:        0.4s
