 Output coordinates in angstroms (scale by  1.889725989 to convert to a.u.)

  No.       Tag          Charge          X              Y              Z
 ---- ---------------- ---------- -------------- -------------- --------------
    1 C                    6.0000    -0.00062929     0.00968701     0.04501533
    2 O                    8.0000     0.00164820     0.16816179     1.34971209
    3 C                    6.0000    -0.00833477     1.25423520    -0.73049374
    4 C                    6.0000     0.01201573    -1.32785904    -0.57197009
    5 H                    1.0000     0.29595998     2.11739483    -0.12974800
    6 H                    1.0000    -0.25376758    -2.14206659     0.11396808
    7 H                    1.0000     0.60170572     1.15993505    -1.64035759
    8 H                    1.0000    -1.04361142     1.43912077    -1.08567212
    9 H                    1.0000    -0.64356424    -1.35306925    -1.45524131
   10 H                    1.0000     1.03124698    -1.52464363    -0.96094732
   11 H                    1.0000    -0.01946500    -0.65834437     1.90499244

         Total DFT energy =     -193.249364067731

                       DFT Final Molecular Orbital Analysis
                       ------------------------------------

 Vector    1  Occ=2.000000D+00  E=-1.908018D+01

 Vector    2  Occ=2.000000D+00  E=-1.026965D+01

 Vector    3  Occ=2.000000D+00  E=-1.012592D+01

 Vector    4  Occ=2.000000D+00  E=-1.011155D+01

 Vector    5  Occ=2.000000D+00  E=-1.276897D+00

 Vector    6  Occ=2.000000D+00  E=-9.671307D-01

 Vector    7  Occ=2.000000D+00  E=-8.861090D-01

 Vector    8  Occ=2.000000D+00  E=-8.168373D-01

 Vector    9  Occ=2.000000D+00  E=-6.927954D-01

 Vector   10  Occ=2.000000D+00  E=-6.581596D-01

 Vector   11  Occ=2.000000D+00  E=-6.547079D-01

 Vector   12  Occ=2.000000D+00  E=-5.866986D-01

 Vector   13  Occ=2.000000D+00  E=-5.744797D-01

 Vector   14  Occ=2.000000D+00  E=-5.634046D-01

 Vector   15  Occ=2.000000D+00  E=-5.596449D-01

 Vector   16  Occ=2.000000D+00  E=-5.475185D-01

 Vector   17  Occ=0.000000D+00  E=-3.406379D-01

 Vector   18  Occ=0.000000D+00  E=-2.093355D-01

 Vector   19  Occ=0.000000D+00  E=-1.490003D-01

 Vector   20  Occ=0.000000D+00  E=-1.225064D-01

 Vector   21  Occ=0.000000D+00  E=-1.036942D-01

 Vector   22  Occ=0.000000D+00  E=-9.702007D-02

 Vector   23  Occ=0.000000D+00  E=-8.818466D-02

 Vector   24  Occ=0.000000D+00  E=-7.753760D-02

 Vector   25  Occ=0.000000D+00  E=-6.727456D-02

 Vector   26  Occ=0.000000D+00  E=-3.095242D-02

 Vector   27  Occ=0.000000D+00  E= 2.405549D-04

 Vector   28  Occ=0.000000D+00  E= 6.135421D-03

 Vector   29  Occ=0.000000D+00  E= 2.766281D-02

 Vector   30  Occ=0.000000D+00  E= 4.616454D-02

 Vector   31  Occ=0.000000D+00  E= 7.738431D-02

 Vector   32  Occ=0.000000D+00  E= 8.644692D-02

 Vector   33  Occ=0.000000D+00  E= 9.931101D-02

 Vector   34  Occ=0.000000D+00  E= 1.034973D-01

 Vector   35  Occ=0.000000D+00  E= 1.154505D-01

 Vector   36  Occ=0.000000D+00  E= 1.194190D-01

 Vector   37  Occ=0.000000D+00  E= 2.130745D-01

 Vector   38  Occ=0.000000D+00  E= 2.278189D-01

 Vector   39  Occ=0.000000D+00  E= 2.353829D-01

 Vector   40  Occ=0.000000D+00  E= 2.537588D-01

 Vector   41  Occ=0.000000D+00  E= 2.667007D-01

 Vector   42  Occ=0.000000D+00  E= 2.719942D-01

 Vector   43  Occ=0.000000D+00  E= 2.840661D-01

 Vector   44  Occ=0.000000D+00  E= 2.858187D-01

 Vector   45  Occ=0.000000D+00  E= 2.963898D-01

 Vector   46  Occ=0.000000D+00  E= 3.325521D-01

 Vector   47  Occ=0.000000D+00  E= 4.049615D-01

 Vector   48  Occ=0.000000D+00  E= 4.944856D-01

 Vector   49  Occ=0.000000D+00  E= 5.752451D-01

 Vector   50  Occ=0.000000D+00  E= 8.598325D-01

 Vector   51  Occ=0.000000D+00  E= 1.086790D+00

 Vector   52  Occ=0.000000D+00  E= 1.098214D+00

 Vector   53  Occ=0.000000D+00  E= 1.174268D+00

 Vector   54  Occ=0.000000D+00  E= 1.206600D+00

 Vector   55  Occ=0.000000D+00  E= 1.229011D+00

 Vector   56  Occ=0.000000D+00  E= 1.294548D+00

 Vector   57  Occ=0.000000D+00  E= 1.322617D+00

 Vector   58  Occ=0.000000D+00  E= 1.444380D+00

 Vector   59  Occ=0.000000D+00  E= 1.488382D+00

 Vector   60  Occ=0.000000D+00  E= 1.799414D+00

 Vector   61  Occ=0.000000D+00  E= 1.870108D+00

 Vector   62  Occ=0.000000D+00  E= 1.941877D+00

 Vector   63  Occ=0.000000D+00  E= 2.071001D+00

 Vector   64  Occ=0.000000D+00  E= 2.088841D+00

 Vector   65  Occ=0.000000D+00  E= 2.095188D+00

 Vector   66  Occ=0.000000D+00  E= 2.108753D+00

 Vector   67  Occ=0.000000D+00  E= 2.179124D+00

 Vector   68  Occ=0.000000D+00  E= 2.245680D+00

 Vector   69  Occ=0.000000D+00  E= 2.350829D+00

 Vector   70  Occ=0.000000D+00  E= 2.529069D+00

 Vector   71  Occ=0.000000D+00  E= 2.561683D+00

 Vector   72  Occ=0.000000D+00  E= 2.785175D+00

 Vector   73  Occ=0.000000D+00  E= 4.341608D+00

 Vector   74  Occ=0.000000D+00  E= 1.127491D+01

 Vector   75  Occ=0.000000D+00  E= 1.147035D+01

 Vector   76  Occ=0.000000D+00  E= 1.149980D+01

 Vector   77  Occ=0.000000D+00  E= 2.162030D+01

 Vector   78  Occ=0.000000D+00  E= 6.220952D+01

 Vector   79  Occ=0.000000D+00  E= 6.242043D+01

 Vector   80  Occ=0.000000D+00  E= 6.244961D+01

 Vector   81  Occ=0.000000D+00  E= 1.175590D+02

     Multipole analysis of the density
     ---------------------------------

     L   x y z        total         alpha         beta         nuclear
     -   - - -        -----         -----         ----         -------
     0   0 0 0      1.000000    -16.000000    -16.000000     33.000000

     1   1 0 0     -0.025502     -0.012751     -0.012751     -0.000000
     1   0 1 0     -0.711478     -0.355739     -0.355739      0.000000
     1   0 0 1     -0.164178     -0.082089     -0.082089      0.000000

     2   2 0 0    -16.555691    -13.781742    -13.781742     11.007792
     2   1 1 0     -0.378534      0.665374      0.665374     -1.709281
     2   1 0 1     -0.020946     -0.010641     -0.010641      0.000336
     2   0 2 0    -11.680940    -72.479679    -72.479679    133.278418
     2   0 1 1     -2.780940      0.262734      0.262734     -3.306408

 Total times  cpu:        2.1s     wall:        2.3s
