 Output coordinates in angstroms (scale by  1.889725989 to convert to a.u.)

  No.       Tag          Charge          X              Y              Z
 ---- ---------------- ---------- -------------- -------------- --------------
    1 C                    6.0000    -0.79843942     0.30990207     0.33887916
    2 C                    6.0000     0.67514423     0.45746085     0.50260204
    3 C                    6.0000     1.66879601    -0.25625929    -0.27992317
    4 H                    1.0000     1.49651091    -1.34751320    -0.19139238
    5 H                    1.0000     2.69072439     0.00369119     0.00593318
    6 H                    1.0000     1.49715931    -0.06728824    -1.35841214
    7 O                    8.0000     1.14128512     1.28635695     1.41321037
    8 Cl                  17.0000    -1.29853960    -0.88185979    -0.96882573
    9 H                    1.0000    -1.24691761     1.28575182     0.08549893
   10 H                    1.0000    -1.24862695    -0.03152884     1.28668789
   11 H                    1.0000     0.48303709     1.79102609     1.96669101

         Total DFT energy =     -652.647670313570

                       DFT Final Molecular Orbital Analysis
                       ------------------------------------

 Vector    1  Occ=2.000000D+00  E=-1.008642D+02

 Vector   21  Occ=2.000000D+00  E=-5.683723D-01

 Vector   22  Occ=2.000000D+00  E=-5.610937D-01

 Vector   23  Occ=2.000000D+00  E=-4.536453D-01

 Vector   24  Occ=2.000000D+00  E=-4.477894D-01

 Vector   25  Occ=0.000000D+00  E=-3.528253D-01

 Vector   26  Occ=0.000000D+00  E=-2.477191D-01

 Vector   27  Occ=0.000000D+00  E=-1.978701D-01

 Vector   28  Occ=0.000000D+00  E=-1.529438D-01

 Vector   29  Occ=0.000000D+00  E=-1.229438D-01

 Vector   30  Occ=0.000000D+00  E=-1.106874D-01

 Vector   31  Occ=0.000000D+00  E=-9.339839D-02

 Vector   32  Occ=0.000000D+00  E=-8.578957D-02

 Vector   33  Occ=0.000000D+00  E=-7.534286D-02

 Vector   34  Occ=0.000000D+00  E=-4.113057D-02

 Vector   35  Occ=0.000000D+00  E=-2.001818D-02

 Vector   36  Occ=0.000000D+00  E= 9.148966D-03

 Vector   37  Occ=0.000000D+00  E= 2.010584D-02

 Vector   38  Occ=0.000000D+00  E= 5.466407D-02

 Vector   39  Occ=0.000000D+00  E= 6.280456D-02

 Vector   40  Occ=0.000000D+00  E= 6.352293D-02

 Vector   41  Occ=0.000000D+00  E= 1.000419D-01

 Vector   42  Occ=0.000000D+00  E= 1.135551D-01

 Vector   43  Occ=0.000000D+00  E= 1.183448D-01

 Vector   44  Occ=0.000000D+00  E= 1.264455D-01

 Vector   45  Occ=0.000000D+00  E= 1.781383D-01

 Vector   46  Occ=0.000000D+00  E= 1.957276D-01

 Vector   47  Occ=0.000000D+00  E= 2.072175D-01

 Vector   48  Occ=0.000000D+00  E= 2.118315D-01

 Vector   49  Occ=0.000000D+00  E= 2.298767D-01

 Vector   50  Occ=0.000000D+00  E= 2.479997D-01

 Vector   51  Occ=0.000000D+00  E= 2.531605D-01

 Vector   52  Occ=0.000000D+00  E= 2.712558D-01

 Vector   53  Occ=0.000000D+00  E= 2.873210D-01

 Vector   54  Occ=0.000000D+00  E= 2.993698D-01

 Vector   55  Occ=0.000000D+00  E= 3.188845D-01

 Vector   56  Occ=0.000000D+00  E= 3.254822D-01

 Vector   57  Occ=0.000000D+00  E= 3.933393D-01

 Vector   58  Occ=0.000000D+00  E= 4.702464D-01

 Vector   59  Occ=0.000000D+00  E= 5.319972D-01

 Vector   60  Occ=0.000000D+00  E= 8.002626D-01

 Vector   61  Occ=0.000000D+00  E= 8.712571D-01

 Vector   62  Occ=0.000000D+00  E= 1.079917D+00

 Vector   63  Occ=0.000000D+00  E= 1.089682D+00

 Vector   64  Occ=0.000000D+00  E= 1.151748D+00

 Vector   65  Occ=0.000000D+00  E= 1.201489D+00

 Vector   66  Occ=0.000000D+00  E= 1.216205D+00

 Vector   67  Occ=0.000000D+00  E= 1.290409D+00

 Vector   68  Occ=0.000000D+00  E= 1.307251D+00

 Vector   69  Occ=0.000000D+00  E= 1.402697D+00

 Vector   70  Occ=0.000000D+00  E= 1.488496D+00

 Vector   71  Occ=0.000000D+00  E= 1.799948D+00

 Vector   72  Occ=0.000000D+00  E= 1.870230D+00

 Vector   73  Occ=0.000000D+00  E= 1.934147D+00

 Vector   74  Occ=0.000000D+00  E= 2.034776D+00

 Vector   75  Occ=0.000000D+00  E= 2.077384D+00

 Vector   76  Occ=0.000000D+00  E= 2.086400D+00

 Vector   77  Occ=0.000000D+00  E= 2.130194D+00

 Vector   78  Occ=0.000000D+00  E= 2.139200D+00

 Vector   79  Occ=0.000000D+00  E= 2.151918D+00

 Vector   80  Occ=0.000000D+00  E= 2.194231D+00

 Vector   81  Occ=0.000000D+00  E= 2.261446D+00

 Vector   82  Occ=0.000000D+00  E= 2.309251D+00

 Vector   83  Occ=0.000000D+00  E= 2.474239D+00

 Vector   84  Occ=0.000000D+00  E= 2.565965D+00

 Vector   85  Occ=0.000000D+00  E= 2.799797D+00

 Vector   86  Occ=0.000000D+00  E= 4.337619D+00

 Vector   87  Occ=0.000000D+00  E= 8.849603D+00

 Vector   88  Occ=0.000000D+00  E= 1.126568D+01

 Vector   89  Occ=0.000000D+00  E= 1.142957D+01

 Vector   90  Occ=0.000000D+00  E= 1.149796D+01

 Vector   91  Occ=0.000000D+00  E= 2.161636D+01

 Vector   92  Occ=0.000000D+00  E= 4.056154D+01

 Vector   93  Occ=0.000000D+00  E= 4.057244D+01

 Vector   94  Occ=0.000000D+00  E= 4.057750D+01

 Vector   95  Occ=0.000000D+00  E= 6.219886D+01

 Vector   96  Occ=0.000000D+00  E= 6.236938D+01

 Vector   97  Occ=0.000000D+00  E= 6.244743D+01

 Vector   98  Occ=0.000000D+00  E= 1.175551D+02

 Vector   99  Occ=0.000000D+00  E= 1.228782D+02

 Vector  100  Occ=0.000000D+00  E= 8.994320D+02

     Multipole analysis of the density
     ---------------------------------

     L   x y z        total         alpha         beta         nuclear
     -   - - -        -----         -----         ----         -------
     0   0 0 0      1.000000    -24.000000    -24.000000     49.000000

     1   1 0 0      0.627211      0.313605      0.313605     -0.000000
     1   0 1 0      1.149484      0.574742      0.574742      0.000000
     1   0 0 1      1.261798      0.630899      0.630899      0.000000

     2   2 0 0    -22.079230   -149.281226   -149.281226    276.483222
     2   1 1 0     -1.887647    -47.739981    -47.739981     93.592314
     2   1 0 1     -2.067951    -52.514952    -52.514952    102.961953
     2   0 2 0    -21.278139    -73.786821    -73.786821    126.295503
     2   0 1 1      4.287224    -61.150885    -61.150885    126.588995

 Total times  cpu:        2.7s     wall:        3.0s
