 Output coordinates in angstroms (scale by  1.889725989 to convert to a.u.)

  No.       Tag          Charge          X              Y              Z
 ---- ---------------- ---------- -------------- -------------- --------------
    1 C                    6.0000     1.66318888    -1.59036989     0.70311288
    2 H                    1.0000     1.64252999    -2.32009213     1.52717088
    3 H                    1.0000     2.44329495    -0.85108457     0.92785158
    4 H                    1.0000     1.93759252    -2.12740724    -0.21469979
    5 C                    6.0000     0.27763053    -0.94710130     0.60064094
    6 H                    1.0000    -0.49002374    -1.70271068     0.37966349
    7 H                    1.0000     0.00503378    -0.43221703     1.53222774
    8 C                    6.0000     0.30618379     0.15785424    -0.58059386
    9 H                    1.0000     1.04614266     0.92508152    -0.32558856
   10 H                    1.0000     0.58406396    -0.38580146    -1.49596277
   11 C                    6.0000    -1.02103248     0.69099515    -0.69526382
   12 H                    1.0000    -1.83407556     0.13196869    -1.17911899
   13 O                    8.0000    -1.30500911     1.84285676    -0.14202781
   14 H                    1.0000    -2.25030993     2.15113947    -0.18269776

         Total DFT energy =     -232.489858633560

                       DFT Final Molecular Orbital Analysis
                       ------------------------------------

 Vector    1  Occ=2.000000D+00  E=-1.908478D+01

 Vector   23  Occ=0.000000D+00  E=-1.440473D-01

 Vector   24  Occ=0.000000D+00  E=-1.247667D-01

 Vector   25  Occ=0.000000D+00  E=-1.011348D-01

 Vector   26  Occ=0.000000D+00  E=-9.332855D-02

 Vector   27  Occ=0.000000D+00  E=-8.601255D-02

 Vector   28  Occ=0.000000D+00  E=-6.552787D-02

 Vector   29  Occ=0.000000D+00  E=-5.352565D-02

 Vector   30  Occ=0.000000D+00  E=-3.756683D-02

 Vector   31  Occ=0.000000D+00  E=-2.591998D-02

 Vector   32  Occ=0.000000D+00  E=-1.608629D-02

 Vector   33  Occ=0.000000D+00  E=-7.600107D-03

 Vector   34  Occ=0.000000D+00  E= 2.231173D-02

 Vector   35  Occ=0.000000D+00  E= 2.594798D-02

 Vector   36  Occ=0.000000D+00  E= 3.961404D-02

 Vector   37  Occ=0.000000D+00  E= 6.564537D-02

 Vector   38  Occ=0.000000D+00  E= 7.075277D-02

 Vector   39  Occ=0.000000D+00  E= 8.314193D-02

 Vector   40  Occ=0.000000D+00  E= 1.017636D-01

 Vector   41  Occ=0.000000D+00  E= 1.201178D-01

 Vector   42  Occ=0.000000D+00  E= 1.217197D-01

 Vector   43  Occ=0.000000D+00  E= 1.427240D-01

 Vector   44  Occ=0.000000D+00  E= 1.640988D-01

 Vector   45  Occ=0.000000D+00  E= 1.968974D-01

 Vector   46  Occ=0.000000D+00  E= 2.095461D-01

 Vector   47  Occ=0.000000D+00  E= 2.366916D-01

 Vector   48  Occ=0.000000D+00  E= 2.471026D-01

 Vector   49  Occ=0.000000D+00  E= 2.650511D-01

 Vector   50  Occ=0.000000D+00  E= 2.676798D-01

 Vector   51  Occ=0.000000D+00  E= 2.823239D-01

 Vector   52  Occ=0.000000D+00  E= 2.950973D-01

 Vector   53  Occ=0.000000D+00  E= 3.031588D-01

 Vector   54  Occ=0.000000D+00  E= 3.163654D-01

 Vector   55  Occ=0.000000D+00  E= 3.183571D-01

 Vector   56  Occ=0.000000D+00  E= 3.425724D-01

 Vector   57  Occ=0.000000D+00  E= 3.609345D-01

 Vector   58  Occ=0.000000D+00  E= 3.800654D-01

 Vector   59  Occ=0.000000D+00  E= 4.522163D-01

 Vector   60  Occ=0.000000D+00  E= 5.034939D-01

 Vector   61  Occ=0.000000D+00  E= 5.502297D-01

 Vector   62  Occ=0.000000D+00  E= 5.912484D-01

 Vector   63  Occ=0.000000D+00  E= 8.925623D-01

 Vector   64  Occ=0.000000D+00  E= 1.084435D+00

 Vector   65  Occ=0.000000D+00  E= 1.116430D+00

 Vector   66  Occ=0.000000D+00  E= 1.179891D+00

 Vector   67  Occ=0.000000D+00  E= 1.237894D+00

 Vector   68  Occ=0.000000D+00  E= 1.249328D+00

 Vector   69  Occ=0.000000D+00  E= 1.278373D+00

 Vector   70  Occ=0.000000D+00  E= 1.306909D+00

 Vector   71  Occ=0.000000D+00  E= 1.358325D+00

 Vector   72  Occ=0.000000D+00  E= 1.368425D+00

 Vector   73  Occ=0.000000D+00  E= 1.416856D+00

 Vector   74  Occ=0.000000D+00  E= 1.523395D+00

 Vector   75  Occ=0.000000D+00  E= 1.579488D+00

 Vector   76  Occ=0.000000D+00  E= 1.801198D+00

 Vector   77  Occ=0.000000D+00  E= 1.907838D+00

 Vector   78  Occ=0.000000D+00  E= 1.971474D+00

 Vector   79  Occ=0.000000D+00  E= 2.015924D+00

 Vector   80  Occ=0.000000D+00  E= 2.057075D+00

 Vector   81  Occ=0.000000D+00  E= 2.145813D+00

 Vector   82  Occ=0.000000D+00  E= 2.153031D+00

 Vector   83  Occ=0.000000D+00  E= 2.179012D+00

 Vector   84  Occ=0.000000D+00  E= 2.211949D+00

 Vector   85  Occ=0.000000D+00  E= 2.237117D+00

 Vector   86  Occ=0.000000D+00  E= 2.335546D+00

 Vector   87  Occ=0.000000D+00  E= 2.386537D+00

 Vector   88  Occ=0.000000D+00  E= 2.486746D+00

 Vector   89  Occ=0.000000D+00  E= 2.516754D+00

 Vector   90  Occ=0.000000D+00  E= 2.680063D+00

 Vector   91  Occ=0.000000D+00  E= 2.714879D+00

 Vector   92  Occ=0.000000D+00  E= 4.349409D+00

 Vector   93  Occ=0.000000D+00  E= 1.128564D+01

 Vector   94  Occ=0.000000D+00  E= 1.150536D+01

 Vector   95  Occ=0.000000D+00  E= 1.153653D+01

 Vector   96  Occ=0.000000D+00  E= 1.155127D+01

 Vector   97  Occ=0.000000D+00  E= 2.161622D+01

 Vector   98  Occ=0.000000D+00  E= 6.222494D+01

 Vector   99  Occ=0.000000D+00  E= 6.244592D+01

 Vector  100  Occ=0.000000D+00  E= 6.248207D+01

 Vector  101  Occ=0.000000D+00  E= 6.250202D+01

 Vector  102  Occ=0.000000D+00  E= 1.175545D+02

     Multipole analysis of the density
     ---------------------------------

     L   x y z        total         alpha         beta         nuclear
     -   - - -        -----         -----         ----         -------
     0   0 0 0      1.000000    -20.000000    -20.000000     41.000000

     1   1 0 0     -1.618928     -0.809464     -0.809464      0.000000
     1   0 1 0      0.616577      0.308288      0.308288     -0.000000
     1   0 0 1     -0.711600     -0.355800     -0.355800      0.000000

     2   2 0 0    -10.823316   -112.591551   -112.591551    214.359786
     2   1 1 0     -7.613924     92.882063     92.882063   -193.378051
     2   1 0 1      2.866921    -31.122082    -31.122082     65.111085
     2   0 2 0    -16.183841   -133.274669   -133.274669    250.365498
     2   0 1 1     -2.041645     36.665120     36.665120    -75.371884

 Total times  cpu:        4.0s     wall:        4.3s
