 Output coordinates in angstroms (scale by  1.889725989 to convert to a.u.)

  No.       Tag          Charge          X              Y              Z
 ---- ---------------- ---------- -------------- -------------- --------------
    1 C                    6.0000    -0.83748131    -0.06761647     0.51770236
    2 C                    6.0000     0.52428173     0.39369765     0.67436314
    3 C                    6.0000     1.47250186     0.25922839    -0.51123250
    4 H                    1.0000     0.90742206    -0.10985024     1.59600964
    5 H                    1.0000     0.44370115     1.44400573     1.04877565
    6 O                    8.0000    -1.21776434    -0.58043851    -0.61720147
    7 H                    1.0000    -1.56957937     0.00185415     1.33522108
    8 H                    1.0000     1.11217629     0.82221898    -1.38239511
    9 H                    1.0000     1.59578389    -0.78936342    -0.81287189
   10 H                    1.0000     2.45820710     0.65200532    -0.23671846
   11 H                    1.0000    -2.16141004    -0.88921996    -0.69540727

         Total DFT energy =     -193.224968259182

                       DFT Final Molecular Orbital Analysis
                       ------------------------------------

 Vector    1  Occ=2.000000D+00  E=-1.909967D+01

 Vector    2  Occ=2.000000D+00  E=-1.027020D+01

 Vector    3  Occ=2.000000D+00  E=-1.013450D+01

 Vector    4  Occ=2.000000D+00  E=-1.006263D+01

 Vector    5  Occ=2.000000D+00  E=-1.293870D+00

 Vector    6  Occ=2.000000D+00  E=-9.684535D-01

 Vector    7  Occ=2.000000D+00  E=-8.543169D-01

 Vector    8  Occ=2.000000D+00  E=-8.026544D-01

 Vector    9  Occ=2.000000D+00  E=-7.417341D-01

 Vector   10  Occ=2.000000D+00  E=-6.575085D-01

 Vector   11  Occ=2.000000D+00  E=-6.532046D-01

 Vector   12  Occ=2.000000D+00  E=-5.895254D-01

 Vector   13  Occ=2.000000D+00  E=-5.752963D-01

 Vector   14  Occ=2.000000D+00  E=-5.375081D-01

 Vector   15  Occ=2.000000D+00  E=-5.096247D-01

 Vector   16  Occ=2.000000D+00  E=-5.022215D-01

 Vector   17  Occ=0.000000D+00  E=-3.581537D-01

 Vector   18  Occ=0.000000D+00  E=-2.226312D-01

 Vector   19  Occ=0.000000D+00  E=-1.505400D-01

 Vector   20  Occ=0.000000D+00  E=-1.381633D-01

 Vector   21  Occ=0.000000D+00  E=-1.102619D-01

 Vector   22  Occ=0.000000D+00  E=-9.434102D-02

 Vector   23  Occ=0.000000D+00  E=-5.940615D-02

 Vector   24  Occ=0.000000D+00  E=-5.718044D-02

 Vector   25  Occ=0.000000D+00  E=-4.399604D-02

 Vector   26  Occ=0.000000D+00  E=-2.023445D-02

 Vector   27  Occ=0.000000D+00  E= 1.086952D-03

 Vector   28  Occ=0.000000D+00  E= 1.419312D-02

 Vector   29  Occ=0.000000D+00  E= 2.401389D-02

 Vector   30  Occ=0.000000D+00  E= 5.296391D-02

 Vector   31  Occ=0.000000D+00  E= 5.432981D-02

 Vector   32  Occ=0.000000D+00  E= 7.113122D-02

 Vector   33  Occ=0.000000D+00  E= 1.105631D-01

 Vector   34  Occ=0.000000D+00  E= 1.169611D-01

 Vector   35  Occ=0.000000D+00  E= 1.266041D-01

 Vector   36  Occ=0.000000D+00  E= 1.817236D-01

 Vector   37  Occ=0.000000D+00  E= 2.119554D-01

 Vector   38  Occ=0.000000D+00  E= 2.153152D-01

 Vector   39  Occ=0.000000D+00  E= 2.297639D-01

 Vector   40  Occ=0.000000D+00  E= 2.422319D-01

 Vector   41  Occ=0.000000D+00  E= 2.457924D-01

 Vector   42  Occ=0.000000D+00  E= 2.885879D-01

 Vector   43  Occ=0.000000D+00  E= 2.943138D-01

 Vector   44  Occ=0.000000D+00  E= 2.987906D-01

 Vector   45  Occ=0.000000D+00  E= 3.172023D-01

 Vector   46  Occ=0.000000D+00  E= 3.407581D-01

 Vector   47  Occ=0.000000D+00  E= 4.067023D-01

 Vector   48  Occ=0.000000D+00  E= 5.259038D-01

 Vector   49  Occ=0.000000D+00  E= 5.994318D-01

 Vector   50  Occ=0.000000D+00  E= 8.610382D-01

 Vector   51  Occ=0.000000D+00  E= 1.084214D+00

 Vector   52  Occ=0.000000D+00  E= 1.090270D+00

 Vector   53  Occ=0.000000D+00  E= 1.173672D+00

 Vector   54  Occ=0.000000D+00  E= 1.236109D+00

 Vector   55  Occ=0.000000D+00  E= 1.267345D+00

 Vector   56  Occ=0.000000D+00  E= 1.296008D+00

 Vector   57  Occ=0.000000D+00  E= 1.385089D+00

 Vector   58  Occ=0.000000D+00  E= 1.399547D+00

 Vector   59  Occ=0.000000D+00  E= 1.523964D+00

 Vector   60  Occ=0.000000D+00  E= 1.790134D+00

 Vector   61  Occ=0.000000D+00  E= 1.935850D+00

 Vector   62  Occ=0.000000D+00  E= 1.954280D+00

 Vector   63  Occ=0.000000D+00  E= 2.005435D+00

 Vector   64  Occ=0.000000D+00  E= 2.107677D+00

 Vector   65  Occ=0.000000D+00  E= 2.127734D+00

 Vector   66  Occ=0.000000D+00  E= 2.148641D+00

 Vector   67  Occ=0.000000D+00  E= 2.199689D+00

 Vector   68  Occ=0.000000D+00  E= 2.210281D+00

 Vector   69  Occ=0.000000D+00  E= 2.375099D+00

 Vector   70  Occ=0.000000D+00  E= 2.502338D+00

 Vector   71  Occ=0.000000D+00  E= 2.610951D+00

 Vector   72  Occ=0.000000D+00  E= 2.723503D+00

 Vector   73  Occ=0.000000D+00  E= 4.317257D+00

 Vector   74  Occ=0.000000D+00  E= 1.124744D+01

 Vector   75  Occ=0.000000D+00  E= 1.150944D+01

 Vector   76  Occ=0.000000D+00  E= 1.151330D+01

 Vector   77  Occ=0.000000D+00  E= 2.158763D+01

 Vector   78  Occ=0.000000D+00  E= 6.218393D+01

 Vector   79  Occ=0.000000D+00  E= 6.245275D+01

 Vector   80  Occ=0.000000D+00  E= 6.246461D+01

 Vector   81  Occ=0.000000D+00  E= 1.175247D+02

     Multipole analysis of the density
     ---------------------------------

     L   x y z        total         alpha         beta         nuclear
     -   - - -        -----         -----         ----         -------
     0   0 0 0      1.000000    -16.000000    -16.000000     33.000000

     1   1 0 0     -1.419193     -0.709597     -0.709597      0.000000
     1   0 1 0     -0.126890     -0.063445     -0.063445     -0.000000
     1   0 0 1      0.841496      0.420748      0.420748      0.000000

     2   2 0 0     -6.755679    -90.355486    -90.355486    173.955294
     2   1 1 0      3.158577    -22.062672    -22.062672     47.283922
     2   1 0 1      0.394925      2.125073      2.125073     -3.855220
     2   0 2 0    -15.623410    -23.288824    -23.288824     30.954238
     2   0 1 1      0.901466     -8.056263     -8.056263     17.013993

 Total times  cpu:        2.4s     wall:        2.5s
