 Output coordinates in angstroms (scale by  1.889725989 to convert to a.u.)

  No.       Tag          Charge          X              Y              Z
 ---- ---------------- ---------- -------------- -------------- --------------
    1 C                    6.0000    -0.33576444     0.02707915     0.30267588
    2 C                    6.0000     1.02859642     0.46202853     0.47802541
    3 H                    1.0000     1.45750867    -0.03482087     1.37417700
    4 H                    1.0000     1.03536240     1.53490430     0.76574533
    5 O                    8.0000    -0.69697506    -0.50731733    -0.82483868
    6 H                    1.0000    -1.08722284     0.13370915     1.09887294
    7 H                    1.0000     1.65797168     0.29097802    -0.39990419
    8 H                    1.0000    -1.64481135    -0.80087813    -0.92438929

         Total DFT energy =     -153.957543806748

                       DFT Final Molecular Orbital Analysis
                       ------------------------------------

 Vector    1  Occ=2.000000D+00  E=-1.911265D+01

 Vector    2  Occ=2.000000D+00  E=-1.028756D+01

 Vector    3  Occ=2.000000D+00  E=-1.013388D+01

 Vector    4  Occ=2.000000D+00  E=-1.307432D+00

 Vector    5  Occ=2.000000D+00  E=-9.699288D-01

 Vector    6  Occ=2.000000D+00  E=-8.462664D-01

 Vector    7  Occ=2.000000D+00  E=-7.820439D-01

 Vector    8  Occ=2.000000D+00  E=-6.654787D-01

 Vector    9  Occ=2.000000D+00  E=-6.651337D-01

 Vector   10  Occ=2.000000D+00  E=-5.951126D-01

 Vector   11  Occ=2.000000D+00  E=-5.851419D-01

 Vector   12  Occ=2.000000D+00  E=-5.698480D-01

 Vector   13  Occ=0.000000D+00  E=-3.728480D-01

 Vector   14  Occ=0.000000D+00  E=-2.294618D-01

 Vector   15  Occ=0.000000D+00  E=-1.551034D-01

 Vector   16  Occ=0.000000D+00  E=-1.388153D-01

 Vector   17  Occ=0.000000D+00  E=-1.077194D-01

 Vector   18  Occ=0.000000D+00  E=-1.060980D-01

 Vector   19  Occ=0.000000D+00  E=-6.427042D-02

 Vector   20  Occ=0.000000D+00  E=-2.611111D-02

 Vector   21  Occ=0.000000D+00  E=-8.935999D-03

 Vector   22  Occ=0.000000D+00  E= 2.715324D-02

 Vector   23  Occ=0.000000D+00  E= 3.111683D-02

 Vector   24  Occ=0.000000D+00  E= 4.692744D-02

 Vector   25  Occ=0.000000D+00  E= 6.634047D-02

 Vector   26  Occ=0.000000D+00  E= 9.660770D-02

 Vector   27  Occ=0.000000D+00  E= 1.219696D-01

 Vector   28  Occ=0.000000D+00  E= 2.020557D-01

 Vector   29  Occ=0.000000D+00  E= 2.091698D-01

 Vector   30  Occ=0.000000D+00  E= 2.407572D-01

 Vector   31  Occ=0.000000D+00  E= 2.453318D-01

 Vector   32  Occ=0.000000D+00  E= 2.553120D-01

 Vector   33  Occ=0.000000D+00  E= 2.693895D-01

 Vector   34  Occ=0.000000D+00  E= 2.946697D-01

 Vector   35  Occ=0.000000D+00  E= 3.994518D-01

 Vector   36  Occ=0.000000D+00  E= 4.758395D-01

 Vector   37  Occ=0.000000D+00  E= 7.969400D-01

 Vector   38  Occ=0.000000D+00  E= 1.064507D+00

 Vector   39  Occ=0.000000D+00  E= 1.065356D+00

 Vector   40  Occ=0.000000D+00  E= 1.143389D+00

 Vector   41  Occ=0.000000D+00  E= 1.241421D+00

 Vector   42  Occ=0.000000D+00  E= 1.293227D+00

 Vector   43  Occ=0.000000D+00  E= 1.367130D+00

 Vector   44  Occ=0.000000D+00  E= 1.776229D+00

 Vector   45  Occ=0.000000D+00  E= 1.846777D+00

 Vector   46  Occ=0.000000D+00  E= 1.938016D+00

 Vector   47  Occ=0.000000D+00  E= 2.059459D+00

 Vector   48  Occ=0.000000D+00  E= 2.077746D+00

 Vector   49  Occ=0.000000D+00  E= 2.134970D+00

 Vector   50  Occ=0.000000D+00  E= 2.190073D+00

 Vector   51  Occ=0.000000D+00  E= 2.334720D+00

 Vector   52  Occ=0.000000D+00  E= 2.510288D+00

 Vector   53  Occ=0.000000D+00  E= 2.667380D+00

 Vector   54  Occ=0.000000D+00  E= 4.266900D+00

 Vector   55  Occ=0.000000D+00  E= 1.119744D+01

 Vector   56  Occ=0.000000D+00  E= 1.146339D+01

 Vector   57  Occ=0.000000D+00  E= 2.154410D+01

 Vector   58  Occ=0.000000D+00  E= 6.213244D+01

 Vector   59  Occ=0.000000D+00  E= 6.241301D+01

 Vector   60  Occ=0.000000D+00  E= 1.174810D+02

     Multipole analysis of the density
     ---------------------------------

     L   x y z        total         alpha         beta         nuclear
     -   - - -        -----         -----         ----         -------
     0   0 0 0      1.000000    -12.000000    -12.000000     25.000000

     1   1 0 0     -0.794158     -0.397079     -0.397079     -0.000000
     1   0 1 0      0.022365      0.011183      0.011183      0.000000
     1   0 0 1      0.608666      0.304333      0.304333     -0.000000

     2   2 0 0     -5.320420    -39.698073    -39.698073     74.075725
     2   1 1 0      2.740790    -14.375102    -14.375102     31.490994
     2   1 0 1      2.288925    -15.635854    -15.635854     33.560633
     2   0 2 0    -11.003297    -17.009912    -17.009912     23.016526
     2   0 1 1      1.212620    -11.214574    -11.214574     23.641767

 Total times  cpu:        1.0s     wall:        1.2s
