 Output coordinates in angstroms (scale by  1.889725989 to convert to a.u.)

  No.       Tag          Charge          X              Y              Z
 ---- ---------------- ---------- -------------- -------------- --------------
    1 C                    6.0000     0.71660205    -0.58009068    -0.59776624
    2 C                    6.0000     1.86489511     0.33383747    -0.63267930
    3 H                    1.0000     2.64666937    -0.04725526     0.05598677
    4 H                    1.0000     1.59239555     1.33370245    -0.27712357
    5 O                    8.0000     0.66562999    -1.69865649    -1.28349537
    6 H                    1.0000     2.31750676     0.40021620    -1.63324740
    7 C                    6.0000    -0.50592963    -0.36905015     0.23147765
    8 Cl                  17.0000    -1.37446545     0.95610579    -0.76515152
    9 Cl                  17.0000    -0.07254942     0.14545552     1.92705226
   10 H                    1.0000    -1.15845905    -1.24181695     0.26601819
   11 H                    1.0000     1.42269521    -1.89031672    -1.90217632

         Total DFT energy =    -1112.055710622170

                       DFT Final Molecular Orbital Analysis
                       ------------------------------------

 Vector    1  Occ=2.000000D+00  E=-1.008837D+02

 Vector   40  Occ=0.000000D+00  E=-9.282420D-02

 Vector   41  Occ=0.000000D+00  E=-8.092672D-02

 Vector   42  Occ=0.000000D+00  E=-4.069060D-02

 Vector   43  Occ=0.000000D+00  E=-3.709001D-02

 Vector   44  Occ=0.000000D+00  E=-4.689388D-03

 Vector   45  Occ=0.000000D+00  E= 2.568884D-02

 Vector   46  Occ=0.000000D+00  E= 4.143089D-02

 Vector   47  Occ=0.000000D+00  E= 6.458629D-02

 Vector   48  Occ=0.000000D+00  E= 6.867292D-02

 Vector   49  Occ=0.000000D+00  E= 8.492804D-02

 Vector   50  Occ=0.000000D+00  E= 9.724375D-02

 Vector   51  Occ=0.000000D+00  E= 1.169464D-01

 Vector   52  Occ=0.000000D+00  E= 1.354597D-01

 Vector   53  Occ=0.000000D+00  E= 1.669638D-01

 Vector   54  Occ=0.000000D+00  E= 1.719693D-01

 Vector   55  Occ=0.000000D+00  E= 1.878568D-01

 Vector   56  Occ=0.000000D+00  E= 1.925109D-01

 Vector   57  Occ=0.000000D+00  E= 2.223349D-01

 Vector   58  Occ=0.000000D+00  E= 2.423032D-01

 Vector   59  Occ=0.000000D+00  E= 2.467078D-01

 Vector   60  Occ=0.000000D+00  E= 2.522632D-01

 Vector   61  Occ=0.000000D+00  E= 2.558076D-01

 Vector   62  Occ=0.000000D+00  E= 2.640979D-01

 Vector   63  Occ=0.000000D+00  E= 2.789888D-01

 Vector   64  Occ=0.000000D+00  E= 2.950921D-01

 Vector   65  Occ=0.000000D+00  E= 3.018169D-01

 Vector   66  Occ=0.000000D+00  E= 3.212122D-01

 Vector   67  Occ=0.000000D+00  E= 4.003673D-01

 Vector   68  Occ=0.000000D+00  E= 4.831891D-01

 Vector   69  Occ=0.000000D+00  E= 5.286672D-01

 Vector   70  Occ=0.000000D+00  E= 7.160032D-01

 Vector   71  Occ=0.000000D+00  E= 7.746026D-01

 Vector   72  Occ=0.000000D+00  E= 8.875181D-01

 Vector   73  Occ=0.000000D+00  E= 1.079496D+00

 Vector   74  Occ=0.000000D+00  E= 1.085378D+00

 Vector   75  Occ=0.000000D+00  E= 1.146796D+00

 Vector   76  Occ=0.000000D+00  E= 1.213876D+00

 Vector   77  Occ=0.000000D+00  E= 1.268910D+00

 Vector   78  Occ=0.000000D+00  E= 1.278946D+00

 Vector   79  Occ=0.000000D+00  E= 1.288660D+00

 Vector   80  Occ=0.000000D+00  E= 1.415687D+00

 Vector   81  Occ=0.000000D+00  E= 1.453933D+00

 Vector   82  Occ=0.000000D+00  E= 1.797865D+00

 Vector   83  Occ=0.000000D+00  E= 1.886250D+00

 Vector   84  Occ=0.000000D+00  E= 1.960874D+00

 Vector   85  Occ=0.000000D+00  E= 2.038036D+00

 Vector   86  Occ=0.000000D+00  E= 2.063264D+00

 Vector   87  Occ=0.000000D+00  E= 2.079933D+00

 Vector   88  Occ=0.000000D+00  E= 2.092919D+00

 Vector   89  Occ=0.000000D+00  E= 2.104766D+00

 Vector   90  Occ=0.000000D+00  E= 2.116140D+00

 Vector   91  Occ=0.000000D+00  E= 2.126345D+00

 Vector   92  Occ=0.000000D+00  E= 2.176238D+00

 Vector   93  Occ=0.000000D+00  E= 2.251157D+00

 Vector   94  Occ=0.000000D+00  E= 2.266386D+00

 Vector   95  Occ=0.000000D+00  E= 2.333898D+00

 Vector   96  Occ=0.000000D+00  E= 2.423922D+00

 Vector   97  Occ=0.000000D+00  E= 2.514434D+00

 Vector   98  Occ=0.000000D+00  E= 2.759237D+00

 Vector   99  Occ=0.000000D+00  E= 4.334751D+00

 Vector  100  Occ=0.000000D+00  E= 8.802661D+00

 Vector  101  Occ=0.000000D+00  E= 8.838326D+00

 Vector  102  Occ=0.000000D+00  E= 1.128048D+01

 Vector  103  Occ=0.000000D+00  E= 1.141733D+01

 Vector  104  Occ=0.000000D+00  E= 1.147263D+01

 Vector  105  Occ=0.000000D+00  E= 2.161228D+01

 Vector  106  Occ=0.000000D+00  E= 4.053519D+01

 Vector  107  Occ=0.000000D+00  E= 4.054498D+01

 Vector  108  Occ=0.000000D+00  E= 4.054758D+01

 Vector  109  Occ=0.000000D+00  E= 4.055320D+01

 Vector  110  Occ=0.000000D+00  E= 4.055917D+01

 Vector  111  Occ=0.000000D+00  E= 4.058165D+01

 Vector  112  Occ=0.000000D+00  E= 6.220853D+01

 Vector  113  Occ=0.000000D+00  E= 6.234951D+01

 Vector  114  Occ=0.000000D+00  E= 6.242116D+01

 Vector  115  Occ=0.000000D+00  E= 1.175505D+02

 Vector  116  Occ=0.000000D+00  E= 1.228295D+02

 Vector  117  Occ=0.000000D+00  E= 1.228730D+02

 Vector  118  Occ=0.000000D+00  E= 8.993792D+02

 Vector  119  Occ=0.000000D+00  E= 8.994278D+02

     Multipole analysis of the density
     ---------------------------------

     L   x y z        total         alpha         beta         nuclear
     -   - - -        -----         -----         ----         -------
     0   0 0 0      1.000000    -32.000000    -32.000000     65.000000

     1   1 0 0      2.009659      1.004829      1.004829      0.000000
     1   0 1 0     -1.035017     -0.517509     -0.517509      0.000000
     1   0 0 1     -1.385106     -0.692553     -0.692553     -0.000000

     2   2 0 0    -24.942575   -154.440798   -154.440798    283.939021
     2   1 1 0     -2.532050     47.886249     47.886249    -98.304549
     2   1 0 1     -5.318199     13.013567     13.013567    -31.345332
     2   0 2 0    -30.607391   -103.767841   -103.767841    176.928292
     2   0 1 1      3.099580    -20.430861    -20.430861     43.961301

 Total times  cpu:        4.4s     wall:        4.7s
