 Output coordinates in angstroms (scale by  1.889725989 to convert to a.u.)

  No.       Tag          Charge          X              Y              Z
 ---- ---------------- ---------- -------------- -------------- --------------
    1 C                    6.0000    -1.14347450     0.49906817     0.94902169
    2 C                    6.0000     0.02912880     0.06129181     0.13478693
    3 C                    6.0000     1.35978801    -0.07852520     0.75767517
    4 O                    8.0000    -0.08938703    -0.20066945    -1.12777733
    5 Cl                  17.0000    -2.64264148     0.76118068    -0.10941136
    6 H                    1.0000    -0.92905273     1.43480338     1.48402615
    7 H                    1.0000    -1.39350414    -0.27496750     1.69167939
    8 Cl                  17.0000     2.61793278    -0.92226792    -0.26862766
    9 H                    1.0000     1.27651558    -0.60046447     1.72335449
   10 H                    1.0000     1.73871347     0.93725603     0.98112606
   11 H                    1.0000    -1.03018208    -0.04379731    -1.48020675

         Total DFT energy =    -1112.053288417224

                       DFT Final Molecular Orbital Analysis
                       ------------------------------------

 Vector    1  Occ=2.000000D+00  E=-1.008919D+02

 Vector   40  Occ=0.000000D+00  E=-9.942675D-02

 Vector   41  Occ=0.000000D+00  E=-8.304535D-02

 Vector   42  Occ=0.000000D+00  E=-3.219265D-02

 Vector   43  Occ=0.000000D+00  E=-2.716561D-02

 Vector   44  Occ=0.000000D+00  E=-2.510476D-03

 Vector   45  Occ=0.000000D+00  E= 7.399103D-03

 Vector   46  Occ=0.000000D+00  E= 4.458153D-02

 Vector   47  Occ=0.000000D+00  E= 5.210436D-02

 Vector   48  Occ=0.000000D+00  E= 6.947059D-02

 Vector   49  Occ=0.000000D+00  E= 7.833044D-02

 Vector   50  Occ=0.000000D+00  E= 8.624973D-02

 Vector   51  Occ=0.000000D+00  E= 1.195885D-01

 Vector   52  Occ=0.000000D+00  E= 1.526288D-01

 Vector   53  Occ=0.000000D+00  E= 1.611684D-01

 Vector   54  Occ=0.000000D+00  E= 1.708478D-01

 Vector   55  Occ=0.000000D+00  E= 1.852008D-01

 Vector   56  Occ=0.000000D+00  E= 1.925979D-01

 Vector   57  Occ=0.000000D+00  E= 2.014954D-01

 Vector   58  Occ=0.000000D+00  E= 2.192972D-01

 Vector   59  Occ=0.000000D+00  E= 2.287162D-01

 Vector   60  Occ=0.000000D+00  E= 2.335929D-01

 Vector   61  Occ=0.000000D+00  E= 2.423146D-01

 Vector   62  Occ=0.000000D+00  E= 2.460597D-01

 Vector   63  Occ=0.000000D+00  E= 2.797419D-01

 Vector   64  Occ=0.000000D+00  E= 2.882751D-01

 Vector   65  Occ=0.000000D+00  E= 3.037274D-01

 Vector   66  Occ=0.000000D+00  E= 3.510488D-01

 Vector   67  Occ=0.000000D+00  E= 3.825553D-01

 Vector   68  Occ=0.000000D+00  E= 4.669740D-01

 Vector   69  Occ=0.000000D+00  E= 5.756048D-01

 Vector   70  Occ=0.000000D+00  E= 7.454775D-01

 Vector   71  Occ=0.000000D+00  E= 7.783771D-01

 Vector   72  Occ=0.000000D+00  E= 8.828715D-01

 Vector   73  Occ=0.000000D+00  E= 1.033711D+00

 Vector   74  Occ=0.000000D+00  E= 1.074223D+00

 Vector   75  Occ=0.000000D+00  E= 1.145757D+00

 Vector   76  Occ=0.000000D+00  E= 1.168828D+00

 Vector   77  Occ=0.000000D+00  E= 1.210469D+00

 Vector   78  Occ=0.000000D+00  E= 1.239776D+00

 Vector   79  Occ=0.000000D+00  E= 1.296371D+00

 Vector   80  Occ=0.000000D+00  E= 1.370398D+00

 Vector   81  Occ=0.000000D+00  E= 1.483460D+00

 Vector   82  Occ=0.000000D+00  E= 1.779144D+00

 Vector   83  Occ=0.000000D+00  E= 1.875986D+00

 Vector   84  Occ=0.000000D+00  E= 1.942823D+00

 Vector   85  Occ=0.000000D+00  E= 2.021405D+00

 Vector   86  Occ=0.000000D+00  E= 2.051907D+00

 Vector   87  Occ=0.000000D+00  E= 2.087734D+00

 Vector   88  Occ=0.000000D+00  E= 2.116430D+00

 Vector   89  Occ=0.000000D+00  E= 2.126887D+00

 Vector   90  Occ=0.000000D+00  E= 2.133393D+00

 Vector   91  Occ=0.000000D+00  E= 2.145631D+00

 Vector   92  Occ=0.000000D+00  E= 2.155648D+00

 Vector   93  Occ=0.000000D+00  E= 2.197259D+00

 Vector   94  Occ=0.000000D+00  E= 2.262521D+00

 Vector   95  Occ=0.000000D+00  E= 2.362955D+00

 Vector   96  Occ=0.000000D+00  E= 2.481489D+00

 Vector   97  Occ=0.000000D+00  E= 2.534448D+00

 Vector   98  Occ=0.000000D+00  E= 2.724574D+00

 Vector   99  Occ=0.000000D+00  E= 4.342343D+00

 Vector  100  Occ=0.000000D+00  E= 8.795072D+00

 Vector  101  Occ=0.000000D+00  E= 8.842533D+00

 Vector  102  Occ=0.000000D+00  E= 1.126358D+01

 Vector  103  Occ=0.000000D+00  E= 1.141890D+01

 Vector  104  Occ=0.000000D+00  E= 1.145675D+01

 Vector  105  Occ=0.000000D+00  E= 2.162079D+01

 Vector  106  Occ=0.000000D+00  E= 4.053271D+01

 Vector  107  Occ=0.000000D+00  E= 4.054477D+01

 Vector  108  Occ=0.000000D+00  E= 4.055214D+01

 Vector  109  Occ=0.000000D+00  E= 4.056895D+01

 Vector  110  Occ=0.000000D+00  E= 4.057606D+01

 Vector  111  Occ=0.000000D+00  E= 4.058474D+01

 Vector  112  Occ=0.000000D+00  E= 6.219478D+01

 Vector  113  Occ=0.000000D+00  E= 6.235987D+01

 Vector  114  Occ=0.000000D+00  E= 6.239650D+01

 Vector  115  Occ=0.000000D+00  E= 1.175586D+02

 Vector  116  Occ=0.000000D+00  E= 1.228269D+02

 Vector  117  Occ=0.000000D+00  E= 1.228725D+02

 Vector  118  Occ=0.000000D+00  E= 8.993771D+02

 Vector  119  Occ=0.000000D+00  E= 8.994246D+02

     Multipole analysis of the density
     ---------------------------------

     L   x y z        total         alpha         beta         nuclear
     -   - - -        -----         -----         ----         -------
     0   0 0 0      1.000000    -32.000000    -32.000000     65.000000

     1   1 0 0     -0.584686     -0.292343     -0.292343      0.000000
     1   0 1 0      0.545483      0.272741      0.272741     -0.000000
     1   0 0 1      1.159543      0.579771      0.579771      0.000000

     2   2 0 0    -30.261059   -484.294071   -484.294071    938.327082
     2   1 1 0      0.097662    141.451302    141.451302   -282.804942
     2   1 0 1      2.361875      9.831437      9.831437    -17.300998
     2   0 2 0    -33.609037    -69.586368    -69.586368    105.563698
     2   0 1 1      0.818094    -15.222296    -15.222296     31.262686

 Total times  cpu:        4.7s     wall:        5.1s
