 Output coordinates in angstroms (scale by  1.889725989 to convert to a.u.)

  No.       Tag          Charge          X              Y              Z
 ---- ---------------- ---------- -------------- -------------- --------------
    1 C                    6.0000    -2.44154300     0.89099523    -0.22343108
    2 C                    6.0000    -1.28251486     0.21105691    -0.96689396
    3 H                    1.0000    -2.60533723     0.43851757     0.76339724
    4 H                    1.0000    -3.36527459     0.77098648    -0.80321725
    5 H                    1.0000    -2.26658883     1.96817014    -0.09131876
    6 C                    6.0000     0.04875152     0.38936861    -0.27573296
    7 H                    1.0000    -1.16799818     0.66462487    -1.97056978
    8 H                    1.0000    -1.48808004    -0.85931869    -1.12242782
    9 C                    6.0000     1.17664902    -0.45232596    -0.71435463
   10 O                    8.0000     2.42794735    -0.08671523    -0.80302970
   11 H                    1.0000     1.01173518    -1.48224511    -1.03717091
   12 Cl                  17.0000     0.14600546    -0.54814003     1.43260361
   13 H                    1.0000     0.30565485     1.42966359    -0.04126591
   14 H                    1.0000     2.66216094     0.84713501    -0.54497489

         Total DFT energy =     -691.898647696617

                       DFT Final Molecular Orbital Analysis
                       ------------------------------------

 Vector    1  Occ=2.000000D+00  E=-1.008934D+02

 Vector   42  Occ=0.000000D+00  E= 7.712963D-03

 Vector   43  Occ=0.000000D+00  E= 1.298230D-02

 Vector   44  Occ=0.000000D+00  E= 3.896831D-02

 Vector   45  Occ=0.000000D+00  E= 6.658299D-02

 Vector   46  Occ=0.000000D+00  E= 7.498560D-02

 Vector   47  Occ=0.000000D+00  E= 8.486547D-02

 Vector   48  Occ=0.000000D+00  E= 9.673873D-02

 Vector   49  Occ=0.000000D+00  E= 1.142079D-01

 Vector   50  Occ=0.000000D+00  E= 1.243495D-01

 Vector   51  Occ=0.000000D+00  E= 1.287988D-01

 Vector   52  Occ=0.000000D+00  E= 1.378868D-01

 Vector   53  Occ=0.000000D+00  E= 1.710422D-01

 Vector   54  Occ=0.000000D+00  E= 2.053744D-01

 Vector   55  Occ=0.000000D+00  E= 2.127625D-01

 Vector   56  Occ=0.000000D+00  E= 2.270051D-01

 Vector   57  Occ=0.000000D+00  E= 2.292523D-01

 Vector   58  Occ=0.000000D+00  E= 2.313449D-01

 Vector   59  Occ=0.000000D+00  E= 2.631060D-01

 Vector   60  Occ=0.000000D+00  E= 2.683211D-01

 Vector   61  Occ=0.000000D+00  E= 2.772321D-01

 Vector   62  Occ=0.000000D+00  E= 2.922272D-01

 Vector   63  Occ=0.000000D+00  E= 2.926986D-01

 Vector   64  Occ=0.000000D+00  E= 3.051825D-01

 Vector   65  Occ=0.000000D+00  E= 3.292665D-01

 Vector   66  Occ=0.000000D+00  E= 3.361772D-01

 Vector   67  Occ=0.000000D+00  E= 3.553262D-01

 Vector   68  Occ=0.000000D+00  E= 3.772968D-01

 Vector   69  Occ=0.000000D+00  E= 4.270928D-01

 Vector   70  Occ=0.000000D+00  E= 5.130191D-01

 Vector   71  Occ=0.000000D+00  E= 5.345902D-01

 Vector   72  Occ=0.000000D+00  E= 5.510139D-01

 Vector   73  Occ=0.000000D+00  E= 7.265782D-01

 Vector   74  Occ=0.000000D+00  E= 9.413891D-01

 Vector   75  Occ=0.000000D+00  E= 1.070001D+00

 Vector   76  Occ=0.000000D+00  E= 1.094895D+00

 Vector   77  Occ=0.000000D+00  E= 1.178769D+00

 Vector   78  Occ=0.000000D+00  E= 1.198926D+00

 Vector   79  Occ=0.000000D+00  E= 1.228930D+00

 Vector   80  Occ=0.000000D+00  E= 1.286803D+00

 Vector   81  Occ=0.000000D+00  E= 1.298174D+00

 Vector   82  Occ=0.000000D+00  E= 1.357699D+00

 Vector   83  Occ=0.000000D+00  E= 1.393027D+00

 Vector   84  Occ=0.000000D+00  E= 1.416842D+00

 Vector   85  Occ=0.000000D+00  E= 1.491994D+00

 Vector   86  Occ=0.000000D+00  E= 1.610045D+00

 Vector   87  Occ=0.000000D+00  E= 1.798072D+00

 Vector   88  Occ=0.000000D+00  E= 1.924293D+00

 Vector   89  Occ=0.000000D+00  E= 1.946996D+00

 Vector   90  Occ=0.000000D+00  E= 2.027696D+00

 Vector   91  Occ=0.000000D+00  E= 2.053663D+00

 Vector   92  Occ=0.000000D+00  E= 2.093402D+00

 Vector   93  Occ=0.000000D+00  E= 2.112629D+00

 Vector   94  Occ=0.000000D+00  E= 2.136007D+00

 Vector   95  Occ=0.000000D+00  E= 2.167278D+00

 Vector   96  Occ=0.000000D+00  E= 2.185651D+00

 Vector   97  Occ=0.000000D+00  E= 2.214390D+00

 Vector   98  Occ=0.000000D+00  E= 2.242142D+00

 Vector   99  Occ=0.000000D+00  E= 2.313166D+00

 Vector  100  Occ=0.000000D+00  E= 2.315462D+00

 Vector  101  Occ=0.000000D+00  E= 2.460695D+00

 Vector  102  Occ=0.000000D+00  E= 2.523472D+00

 Vector  103  Occ=0.000000D+00  E= 2.633487D+00

 Vector  104  Occ=0.000000D+00  E= 2.724605D+00

 Vector  105  Occ=0.000000D+00  E= 4.362043D+00

 Vector  106  Occ=0.000000D+00  E= 8.790193D+00

 Vector  107  Occ=0.000000D+00  E= 1.128607D+01

 Vector  108  Occ=0.000000D+00  E= 1.146291D+01

 Vector  109  Occ=0.000000D+00  E= 1.152845D+01

 Vector  110  Occ=0.000000D+00  E= 1.153984D+01

 Vector  111  Occ=0.000000D+00  E= 2.163254D+01

 Vector  112  Occ=0.000000D+00  E= 4.053620D+01

 Vector  113  Occ=0.000000D+00  E= 4.054641D+01

 Vector  114  Occ=0.000000D+00  E= 4.055301D+01

 Vector  115  Occ=0.000000D+00  E= 6.222145D+01

 Vector  116  Occ=0.000000D+00  E= 6.240022D+01

 Vector  117  Occ=0.000000D+00  E= 6.247118D+01

 Vector  118  Occ=0.000000D+00  E= 6.249214D+01

 Vector  119  Occ=0.000000D+00  E= 1.175702D+02

 Vector  120  Occ=0.000000D+00  E= 1.228217D+02

 Vector  121  Occ=0.000000D+00  E= 8.993712D+02

     Multipole analysis of the density
     ---------------------------------

     L   x y z        total         alpha         beta         nuclear
     -   - - -        -----         -----         ----         -------
     0   0 0 0      1.000000    -28.000000    -28.000000     57.000000

     1   1 0 0      0.903093      0.451546      0.451546      0.000000
     1   0 1 0      0.678095      0.339048      0.339048      0.000000
     1   0 0 1     -1.065877     -0.532938     -0.532938      0.000000

     2   2 0 0    -20.798426   -254.145741   -254.145741    487.493056
     2   1 1 0      2.029371     49.766760     49.766760    -97.504149
     2   1 0 1     -0.413677      7.064034      7.064034    -14.541744
     2   0 2 0    -26.928049    -54.772082    -54.772082     82.616114
     2   0 1 1     -0.370700     24.293421     24.293421    -48.957542

 Total times  cpu:        5.8s     wall:        6.2s
