 Output coordinates in angstroms (scale by  1.889725989 to convert to a.u.)

  No.       Tag          Charge          X              Y              Z
 ---- ---------------- ---------- -------------- -------------- --------------
    1 C                    6.0000     0.47946527     0.07726535     0.88294437
    2 C                    6.0000     1.30695751    -0.39000369    -0.23179355
    3 O                    8.0000     0.87890589    -0.55339524    -1.43353836
    4 H                    1.0000     2.36594219    -0.63215313    -0.09628017
    5 Cl                  17.0000    -1.25933833     0.40827247     0.36531667
    6 H                    1.0000     0.91523325     0.99842931     1.31226376
    7 H                    1.0000     0.48317776    -0.67536312     1.69308480
    8 H                    1.0000    -0.10538533    -0.32795308    -1.55804969

         Total DFT energy =     -613.361586342094

                       DFT Final Molecular Orbital Analysis
                       ------------------------------------

 Vector    1  Occ=2.000000D+00  E=-1.009021D+02

 Vector    2  Occ=2.000000D+00  E=-1.912415D+01

 Vector    3  Occ=2.000000D+00  E=-1.029835D+01

 Vector    4  Occ=2.000000D+00  E=-1.021619D+01

 Vector    5  Occ=2.000000D+00  E=-9.405721D+00

 Vector    6  Occ=2.000000D+00  E=-7.233844D+00

 Vector    7  Occ=2.000000D+00  E=-7.219609D+00

 Vector    8  Occ=2.000000D+00  E=-7.217802D+00

 Vector    9  Occ=2.000000D+00  E=-1.323168D+00

 Vector   10  Occ=2.000000D+00  E=-1.030128D+00

 Vector   11  Occ=2.000000D+00  E=-9.425445D-01

 Vector   12  Occ=2.000000D+00  E=-8.643872D-01

 Vector   13  Occ=2.000000D+00  E=-7.362555D-01

 Vector   14  Occ=2.000000D+00  E=-7.290587D-01

 Vector   15  Occ=2.000000D+00  E=-6.915549D-01

 Vector   16  Occ=2.000000D+00  E=-6.255222D-01

 Vector   17  Occ=2.000000D+00  E=-6.043440D-01

 Vector   18  Occ=2.000000D+00  E=-5.880324D-01

 Vector   19  Occ=2.000000D+00  E=-4.978551D-01

 Vector   20  Occ=2.000000D+00  E=-4.817556D-01

 Vector   21  Occ=0.000000D+00  E=-3.845787D-01

 Vector   22  Occ=0.000000D+00  E=-2.647384D-01

 Vector   23  Occ=0.000000D+00  E=-2.083281D-01

 Vector   24  Occ=0.000000D+00  E=-1.729688D-01

 Vector   25  Occ=0.000000D+00  E=-1.352304D-01

 Vector   26  Occ=0.000000D+00  E=-1.255914D-01

 Vector   27  Occ=0.000000D+00  E=-6.469950D-02

 Vector   28  Occ=0.000000D+00  E=-5.913014D-02

 Vector   29  Occ=0.000000D+00  E=-1.102156D-02

 Vector   30  Occ=0.000000D+00  E=-3.750421D-03

 Vector   31  Occ=0.000000D+00  E= 1.451473D-02

 Vector   32  Occ=0.000000D+00  E= 5.766682D-02

 Vector   33  Occ=0.000000D+00  E= 7.138983D-02

 Vector   34  Occ=0.000000D+00  E= 8.588157D-02

 Vector   35  Occ=0.000000D+00  E= 1.250452D-01

 Vector   36  Occ=0.000000D+00  E= 1.388043D-01

 Vector   37  Occ=0.000000D+00  E= 1.692537D-01

 Vector   38  Occ=0.000000D+00  E= 1.707305D-01

 Vector   39  Occ=0.000000D+00  E= 2.005630D-01

 Vector   40  Occ=0.000000D+00  E= 2.244232D-01

 Vector   41  Occ=0.000000D+00  E= 2.439749D-01

 Vector   42  Occ=0.000000D+00  E= 2.506560D-01

 Vector   43  Occ=0.000000D+00  E= 2.626734D-01

 Vector   44  Occ=0.000000D+00  E= 3.166504D-01

 Vector   45  Occ=0.000000D+00  E= 3.848081D-01

 Vector   46  Occ=0.000000D+00  E= 4.758933D-01

 Vector   47  Occ=0.000000D+00  E= 7.056591D-01

 Vector   48  Occ=0.000000D+00  E= 8.221759D-01

 Vector   49  Occ=0.000000D+00  E= 1.041743D+00

 Vector   50  Occ=0.000000D+00  E= 1.055805D+00

 Vector   51  Occ=0.000000D+00  E= 1.103367D+00

 Vector   52  Occ=0.000000D+00  E= 1.214776D+00

 Vector   53  Occ=0.000000D+00  E= 1.250115D+00

 Vector   54  Occ=0.000000D+00  E= 1.321496D+00

 Vector   55  Occ=0.000000D+00  E= 1.764191D+00

 Vector   56  Occ=0.000000D+00  E= 1.842277D+00

 Vector   57  Occ=0.000000D+00  E= 1.941341D+00

 Vector   58  Occ=0.000000D+00  E= 2.014665D+00

 Vector   59  Occ=0.000000D+00  E= 2.079403D+00

 Vector   60  Occ=0.000000D+00  E= 2.094969D+00

 Vector   61  Occ=0.000000D+00  E= 2.115646D+00

 Vector   62  Occ=0.000000D+00  E= 2.170969D+00

 Vector   63  Occ=0.000000D+00  E= 2.193542D+00

 Vector   64  Occ=0.000000D+00  E= 2.319346D+00

 Vector   65  Occ=0.000000D+00  E= 2.412747D+00

 Vector   66  Occ=0.000000D+00  E= 2.659129D+00

 Vector   67  Occ=0.000000D+00  E= 4.268764D+00

 Vector   68  Occ=0.000000D+00  E= 8.761920D+00

 Vector   69  Occ=0.000000D+00  E= 1.118979D+01

 Vector   70  Occ=0.000000D+00  E= 1.138609D+01

 Vector   71  Occ=0.000000D+00  E= 2.154880D+01

 Vector   72  Occ=0.000000D+00  E= 4.052254D+01

 Vector   73  Occ=0.000000D+00  E= 4.053400D+01

 Vector   74  Occ=0.000000D+00  E= 4.054021D+01

 Vector   75  Occ=0.000000D+00  E= 6.212305D+01

 Vector   76  Occ=0.000000D+00  E= 6.232419D+01

 Vector   77  Occ=0.000000D+00  E= 1.174852D+02

 Vector   78  Occ=0.000000D+00  E= 1.227979D+02

 Vector   79  Occ=0.000000D+00  E= 8.993457D+02

     Multipole analysis of the density
     ---------------------------------

     L   x y z        total         alpha         beta         nuclear
     -   - - -        -----         -----         ----         -------
     0   0 0 0      1.000000    -20.000000    -20.000000     41.000000

     1   1 0 0      1.588850      0.794425      0.794425      0.000000
     1   0 1 0     -0.360308     -0.180154     -0.180154     -0.000000
     1   0 0 1      0.219315      0.109658      0.109658      0.000000

     2   2 0 0    -15.440717    -99.583696    -99.583696    183.726675
     2   1 1 0     -0.799487     28.778168     28.778168    -58.355822
     2   1 0 1      2.531997     28.446556     28.446556    -54.361115
     2   0 2 0    -20.535387    -24.895172    -24.895172     29.254957
     2   0 1 1      0.147178    -18.803681    -18.803681     37.754541

 Total times  cpu:        1.6s     wall:        1.8s
