 Output coordinates in angstroms (scale by  1.889725989 to convert to a.u.)

  No.       Tag          Charge          X              Y              Z
 ---- ---------------- ---------- -------------- -------------- --------------
    1 C                    6.0000     0.28965743     0.05978961     0.57253711
    2 O                    8.0000    -0.20171320    -0.08879637    -0.59455055
    3 H                    1.0000     1.34803382    -0.20291295     0.66639779
    4 H                    1.0000    -0.30702410     0.42478693     1.42032677
    5 H                    1.0000    -1.16524874     0.12975938    -0.76554278

         Total DFT energy =     -114.652289107096

                       DFT Final Molecular Orbital Analysis
                       ------------------------------------

 Vector    1  Occ=2.000000D+00  E=-1.916781D+01

 Vector    2  Occ=2.000000D+00  E=-1.032552D+01

 Vector    3  Occ=2.000000D+00  E=-1.361226D+00

 Vector    4  Occ=2.000000D+00  E=-9.563219D-01

 Vector    5  Occ=2.000000D+00  E=-8.221141D-01

 Vector    6  Occ=2.000000D+00  E=-7.476140D-01

 Vector    7  Occ=2.000000D+00  E=-6.976690D-01

 Vector    8  Occ=2.000000D+00  E=-6.102353D-01

 Vector    9  Occ=0.000000D+00  E=-4.274168D-01

 Vector   10  Occ=0.000000D+00  E=-2.591555D-01

 Vector   11  Occ=0.000000D+00  E=-1.857812D-01

 Vector   12  Occ=0.000000D+00  E=-1.415382D-01

 Vector   13  Occ=0.000000D+00  E=-9.080252D-02

 Vector   14  Occ=0.000000D+00  E=-3.910719D-02

 Vector   15  Occ=0.000000D+00  E= 1.001342D-02

 Vector   16  Occ=0.000000D+00  E= 1.233311D-02

 Vector   17  Occ=0.000000D+00  E= 5.954650D-02

 Vector   18  Occ=0.000000D+00  E= 8.446046D-02

 Vector   19  Occ=0.000000D+00  E= 1.821099D-01

 Vector   20  Occ=0.000000D+00  E= 1.975968D-01

 Vector   21  Occ=0.000000D+00  E= 2.173299D-01

 Vector   22  Occ=0.000000D+00  E= 2.560102D-01

 Vector   23  Occ=0.000000D+00  E= 3.951054D-01

 Vector   24  Occ=0.000000D+00  E= 6.948216D-01

 Vector   25  Occ=0.000000D+00  E= 1.020576D+00

 Vector   26  Occ=0.000000D+00  E= 1.039464D+00

 Vector   27  Occ=0.000000D+00  E= 1.178686D+00

 Vector   28  Occ=0.000000D+00  E= 1.723035D+00

 Vector   29  Occ=0.000000D+00  E= 1.803738D+00

 Vector   30  Occ=0.000000D+00  E= 1.956894D+00

 Vector   31  Occ=0.000000D+00  E= 2.025723D+00

 Vector   32  Occ=0.000000D+00  E= 2.128409D+00

 Vector   33  Occ=0.000000D+00  E= 2.301865D+00

 Vector   34  Occ=0.000000D+00  E= 2.591425D+00

 Vector   35  Occ=0.000000D+00  E= 4.145831D+00

 Vector   36  Occ=0.000000D+00  E= 1.112016D+01

 Vector   37  Occ=0.000000D+00  E= 2.142732D+01

 Vector   38  Occ=0.000000D+00  E= 6.205086D+01

 Vector   39  Occ=0.000000D+00  E= 1.173618D+02

     Multipole analysis of the density
     ---------------------------------

     L   x y z        total         alpha         beta         nuclear
     -   - - -        -----         -----         ----         -------
     0   0 0 0      1.000000     -8.000000     -8.000000     17.000000

     1   1 0 0     -0.475217     -0.237608     -0.237608      0.000000
     1   0 1 0      0.302152      0.151076      0.151076     -0.000000
     1   0 0 1      0.722797      0.361398      0.361398      0.000000

     2   2 0 0     -3.999562     -9.317210     -9.317210     14.634857
     2   1 1 0     -0.561082      0.269319      0.269319     -1.099720
     2   1 0 1      2.086447     -4.864687     -4.864687     11.815821
     2   0 2 0     -7.803266     -4.478328     -4.478328      1.153390
     2   0 1 1     -0.040055     -1.799348     -1.799348      3.558641

 Total times  cpu:        0.4s     wall:        0.5s
