 Output coordinates in angstroms (scale by  1.889725989 to convert to a.u.)

  No.       Tag          Charge          X              Y              Z
 ---- ---------------- ---------- -------------- -------------- --------------
    1 C                    6.0000    -0.00949886     0.10962454    -0.02487650
    2 C                    6.0000     0.09858448    -0.92819800    -1.09219515
    3 O                    8.0000     0.18731219    -2.19537741    -0.88393372
    4 H                    1.0000     0.10625835    -0.62513527    -2.14140898
    5 Cl                  17.0000    -1.59681561     0.96317072    -0.40762476
    6 Cl                  17.0000    -0.00781754    -0.63190099     1.65610757
    7 Cl                  17.0000     1.46819341     1.17366431    -0.31734375
    8 H                    1.0000     0.18020622    -2.48428363     0.08594459

         Total DFT energy =    -1532.165014826303

                       DFT Final Molecular Orbital Analysis
                       ------------------------------------

 Vector    1  Occ=2.000000D+00  E=-1.009180D+02

 Vector   38  Occ=0.000000D+00  E=-3.002030D-01

 Vector   39  Occ=0.000000D+00  E=-2.676174D-01

 Vector   40  Occ=0.000000D+00  E=-2.336180D-01

 Vector   41  Occ=0.000000D+00  E=-2.146949D-01

 Vector   42  Occ=0.000000D+00  E=-1.395600D-01

 Vector   43  Occ=0.000000D+00  E=-1.068275D-01

 Vector   44  Occ=0.000000D+00  E=-6.500613D-02

 Vector   45  Occ=0.000000D+00  E=-1.816082D-02

 Vector   46  Occ=0.000000D+00  E= 3.093371D-02

 Vector   47  Occ=0.000000D+00  E= 4.888470D-02

 Vector   48  Occ=0.000000D+00  E= 5.352393D-02

 Vector   49  Occ=0.000000D+00  E= 6.186132D-02

 Vector   50  Occ=0.000000D+00  E= 7.809294D-02

 Vector   51  Occ=0.000000D+00  E= 8.915150D-02

 Vector   52  Occ=0.000000D+00  E= 1.241563D-01

 Vector   53  Occ=0.000000D+00  E= 1.430621D-01

 Vector   54  Occ=0.000000D+00  E= 1.512282D-01

 Vector   55  Occ=0.000000D+00  E= 1.633546D-01

 Vector   56  Occ=0.000000D+00  E= 1.979632D-01

 Vector   57  Occ=0.000000D+00  E= 1.987670D-01

 Vector   58  Occ=0.000000D+00  E= 2.124233D-01

 Vector   59  Occ=0.000000D+00  E= 2.148439D-01

 Vector   60  Occ=0.000000D+00  E= 2.346421D-01

 Vector   61  Occ=0.000000D+00  E= 2.381771D-01

 Vector   62  Occ=0.000000D+00  E= 2.543511D-01

 Vector   63  Occ=0.000000D+00  E= 2.636401D-01

 Vector   64  Occ=0.000000D+00  E= 3.059906D-01

 Vector   65  Occ=0.000000D+00  E= 3.760388D-01

 Vector   66  Occ=0.000000D+00  E= 4.696904D-01

 Vector   67  Occ=0.000000D+00  E= 6.792664D-01

 Vector   68  Occ=0.000000D+00  E= 6.842682D-01

 Vector   69  Occ=0.000000D+00  E= 7.546496D-01

 Vector   70  Occ=0.000000D+00  E= 8.472368D-01

 Vector   71  Occ=0.000000D+00  E= 1.036121D+00

 Vector   72  Occ=0.000000D+00  E= 1.045458D+00

 Vector   73  Occ=0.000000D+00  E= 1.112003D+00

 Vector   74  Occ=0.000000D+00  E= 1.181353D+00

 Vector   75  Occ=0.000000D+00  E= 1.250949D+00

 Vector   76  Occ=0.000000D+00  E= 1.294549D+00

 Vector   77  Occ=0.000000D+00  E= 1.758762D+00

 Vector   78  Occ=0.000000D+00  E= 1.902097D+00

 Vector   79  Occ=0.000000D+00  E= 1.994402D+00

 Vector   80  Occ=0.000000D+00  E= 2.000387D+00

 Vector   81  Occ=0.000000D+00  E= 2.036919D+00

 Vector   82  Occ=0.000000D+00  E= 2.053198D+00

 Vector   83  Occ=0.000000D+00  E= 2.055039D+00

 Vector   84  Occ=0.000000D+00  E= 2.062782D+00

 Vector   85  Occ=0.000000D+00  E= 2.091733D+00

 Vector   86  Occ=0.000000D+00  E= 2.094820D+00

 Vector   87  Occ=0.000000D+00  E= 2.124956D+00

 Vector   88  Occ=0.000000D+00  E= 2.175491D+00

 Vector   89  Occ=0.000000D+00  E= 2.214249D+00

 Vector   90  Occ=0.000000D+00  E= 2.294068D+00

 Vector   91  Occ=0.000000D+00  E= 2.367321D+00

 Vector   92  Occ=0.000000D+00  E= 2.645398D+00

 Vector   93  Occ=0.000000D+00  E= 4.261618D+00

 Vector   94  Occ=0.000000D+00  E= 8.728781D+00

 Vector   95  Occ=0.000000D+00  E= 8.790966D+00

 Vector   96  Occ=0.000000D+00  E= 8.839720D+00

 Vector   97  Occ=0.000000D+00  E= 1.119741D+01

 Vector   98  Occ=0.000000D+00  E= 1.132843D+01

 Vector   99  Occ=0.000000D+00  E= 2.154279D+01

 Vector  100  Occ=0.000000D+00  E= 4.049574D+01

 Vector  101  Occ=0.000000D+00  E= 4.049783D+01

 Vector  102  Occ=0.000000D+00  E= 4.050833D+01

 Vector  103  Occ=0.000000D+00  E= 4.051024D+01

 Vector  104  Occ=0.000000D+00  E= 4.051202D+01

 Vector  105  Occ=0.000000D+00  E= 4.051985D+01

 Vector  106  Occ=0.000000D+00  E= 4.052370D+01

 Vector  107  Occ=0.000000D+00  E= 4.052942D+01

 Vector  108  Occ=0.000000D+00  E= 4.056250D+01

 Vector  109  Occ=0.000000D+00  E= 6.211848D+01

 Vector  110  Occ=0.000000D+00  E= 6.224213D+01

 Vector  111  Occ=0.000000D+00  E= 1.174784D+02

 Vector  112  Occ=0.000000D+00  E= 1.227881D+02

 Vector  113  Occ=0.000000D+00  E= 1.228139D+02

 Vector  114  Occ=0.000000D+00  E= 1.228566D+02

 Vector  115  Occ=0.000000D+00  E= 8.993364D+02

 Vector  116  Occ=0.000000D+00  E= 8.993663D+02

 Vector  117  Occ=0.000000D+00  E= 8.994134D+02

     Multipole analysis of the density
     ---------------------------------

     L   x y z        total         alpha         beta         nuclear
     -   - - -        -----         -----         ----         -------
     0   0 0 0      1.000000    -36.000000    -36.000000     73.000000

     1   1 0 0      0.122175      0.061087      0.061087     -0.000000
     1   0 1 0     -1.372032     -0.686016     -0.686016     -0.000000
     1   0 0 1     -0.788560     -0.394280     -0.394280      0.000000

     2   2 0 0    -36.229097   -161.629105   -161.629105    287.029113
     2   1 1 0     -0.351218      1.837505      1.837505     -4.026228
     2   1 0 1      0.022138     -1.316133     -1.316133      2.654403
     2   0 2 0    -31.066845   -187.547248   -187.547248    344.027650
     2   0 1 1     -1.095728     13.880296     13.880296    -28.856319

 Total times  cpu:        3.2s     wall:        3.4s
