 Output coordinates in angstroms (scale by  1.889725989 to convert to a.u.)

  No.       Tag          Charge          X              Y              Z
 ---- ---------------- ---------- -------------- -------------- --------------
    1 C                    6.0000    -0.66895166    -0.00000349     0.00000346
    2 C                    6.0000     0.66895154     0.00000350    -0.00000345
    3 H                    1.0000    -1.24632607     0.40201506     0.83551634
    4 H                    1.0000    -1.24632446    -0.40201266    -0.83551713
    5 H                    1.0000     1.24632485     0.40201250     0.83551733
    6 H                    1.0000     1.24632642    -0.40201489    -0.83551654

         Total DFT energy =      -78.481533587485

                       DFT Final Molecular Orbital Analysis
                       ------------------------------------

 Vector    1  Occ=2.000000D+00  E=-9.894247D+00

 Vector    2  Occ=2.000000D+00  E=-9.893583D+00

 Vector    3  Occ=2.000000D+00  E=-6.939035D-01

 Vector    4  Occ=2.000000D+00  E=-5.248738D-01

 Vector    5  Occ=2.000000D+00  E=-4.236381D-01

 Vector    6  Occ=2.000000D+00  E=-3.791256D-01

 Vector    7  Occ=2.000000D+00  E=-3.138716D-01

 Vector    8  Occ=2.000000D+00  E=-2.466517D-01

 Vector    9  Occ=0.000000D+00  E=-3.358191D-02

 Vector   10  Occ=0.000000D+00  E= 4.183330D-02

 Vector   11  Occ=0.000000D+00  E= 6.863656D-02

 Vector   12  Occ=0.000000D+00  E= 7.039507D-02

 Vector   13  Occ=0.000000D+00  E= 1.376516D-01

 Vector   14  Occ=0.000000D+00  E= 1.826616D-01

 Vector   15  Occ=0.000000D+00  E= 1.978564D-01

 Vector   16  Occ=0.000000D+00  E= 2.008616D-01

 Vector   17  Occ=0.000000D+00  E= 2.499069D-01

 Vector   18  Occ=0.000000D+00  E= 2.826685D-01

 Vector   19  Occ=0.000000D+00  E= 3.027252D-01

 Vector   20  Occ=0.000000D+00  E= 3.897360D-01

 Vector   21  Occ=0.000000D+00  E= 3.999795D-01

 Vector   22  Occ=0.000000D+00  E= 4.605577D-01

 Vector   23  Occ=0.000000D+00  E= 4.815141D-01

 Vector   24  Occ=0.000000D+00  E= 4.828508D-01

 Vector   25  Occ=0.000000D+00  E= 5.921881D-01

 Vector   26  Occ=0.000000D+00  E= 6.125054D-01

 Vector   27  Occ=0.000000D+00  E= 1.365573D+00

 Vector   28  Occ=0.000000D+00  E= 1.379649D+00

 Vector   29  Occ=0.000000D+00  E= 1.418620D+00

 Vector   30  Occ=0.000000D+00  E= 1.453224D+00

 Vector   31  Occ=0.000000D+00  E= 1.476091D+00

 Vector   32  Occ=0.000000D+00  E= 1.695729D+00

 Vector   33  Occ=0.000000D+00  E= 2.100223D+00

 Vector   34  Occ=0.000000D+00  E= 2.127471D+00

 Vector   35  Occ=0.000000D+00  E= 2.262984D+00

 Vector   36  Occ=0.000000D+00  E= 2.387245D+00

 Vector   37  Occ=0.000000D+00  E= 2.451364D+00

 Vector   38  Occ=0.000000D+00  E= 2.615747D+00

 Vector   39  Occ=0.000000D+00  E= 1.140021D+01

 Vector   40  Occ=0.000000D+00  E= 1.178516D+01

 Vector   41  Occ=0.000000D+00  E= 6.235282D+01

 Vector   42  Occ=0.000000D+00  E= 6.272881D+01

     Multipole analysis of the density
     ---------------------------------

     L   x y z        total         alpha         beta         nuclear
     -   - - -        -----         -----         ----         -------
     0   0 0 0     -0.000000     -8.000000     -8.000000     16.000000

     1   1 0 0     -0.000000     -0.000000     -0.000000      0.000000
     1   0 1 0     -0.000000     -0.000000     -0.000000      0.000000
     1   0 0 1     -0.000000     -0.000000     -0.000000      0.000000

     2   2 0 0     -9.245089    -25.304834    -25.304834     41.364579
     2   1 1 0     -0.000017     -0.000046     -0.000046      0.000074
     2   1 0 1     -0.000004      0.000049      0.000049     -0.000101
     2   0 2 0    -11.281412     -6.794981     -6.794981      2.308551
     2   0 1 1      1.001577     -1.898176     -1.898176      4.797929

 Total times  cpu:        0.4s     wall:        0.7s
