 Output coordinates in angstroms (scale by  1.889725989 to convert to a.u.)

  No.       Tag          Charge          X              Y              Z
 ---- ---------------- ---------- -------------- -------------- --------------
    1 C                    6.0000    -0.14249165    -0.19689509    -0.40952527
    2 C                    6.0000     1.19657071    -0.22805966    -0.47391638
    3 H                    1.0000     1.81827955     0.16170130     0.33673791
    4 H                    1.0000     1.72232347    -0.64257136    -1.33562288
    5 C                    6.0000    -0.94223841     0.35511898     0.73821364
    6 H                    1.0000    -0.72456646    -0.59968961    -1.24731409
    7 H                    1.0000    -0.28950084     0.73891847     1.53525175
    8 H                    1.0000    -1.59846769    -0.41624704     1.17449095
    9 H                    1.0000    -1.59911187     1.17690282     0.40782440

         Total DFT energy =     -117.749031572732

                       DFT Final Molecular Orbital Analysis
                       ------------------------------------

 Vector    1  Occ=2.000000D+00  E=-9.899108D+00

 Vector    2  Occ=2.000000D+00  E=-9.889032D+00

 Vector    3  Occ=2.000000D+00  E=-9.881968D+00

 Vector    4  Occ=2.000000D+00  E=-7.160375D-01

 Vector    5  Occ=2.000000D+00  E=-6.219090D-01

 Vector    6  Occ=2.000000D+00  E=-4.994909D-01

 Vector    7  Occ=2.000000D+00  E=-4.204533D-01

 Vector    8  Occ=2.000000D+00  E=-3.782670D-01

 Vector    9  Occ=2.000000D+00  E=-3.692615D-01

 Vector   10  Occ=2.000000D+00  E=-3.297307D-01

 Vector   11  Occ=2.000000D+00  E=-3.047893D-01

 Vector   12  Occ=2.000000D+00  E=-2.276424D-01

 Vector   13  Occ=0.000000D+00  E=-2.105292D-02

 Vector   14  Occ=0.000000D+00  E= 3.342009D-02

 Vector   15  Occ=0.000000D+00  E= 5.980005D-02

 Vector   16  Occ=0.000000D+00  E= 6.730610D-02

 Vector   17  Occ=0.000000D+00  E= 9.593499D-02

 Vector   18  Occ=0.000000D+00  E= 9.728906D-02

 Vector   19  Occ=0.000000D+00  E= 1.129018D-01

 Vector   20  Occ=0.000000D+00  E= 1.553732D-01

 Vector   21  Occ=0.000000D+00  E= 1.912749D-01

 Vector   22  Occ=0.000000D+00  E= 1.917378D-01

 Vector   23  Occ=0.000000D+00  E= 2.317199D-01

 Vector   24  Occ=0.000000D+00  E= 2.459542D-01

 Vector   25  Occ=0.000000D+00  E= 2.542014D-01

 Vector   26  Occ=0.000000D+00  E= 2.980649D-01

 Vector   27  Occ=0.000000D+00  E= 3.093744D-01

 Vector   28  Occ=0.000000D+00  E= 3.155601D-01

 Vector   29  Occ=0.000000D+00  E= 3.750165D-01

 Vector   30  Occ=0.000000D+00  E= 4.102897D-01

 Vector   31  Occ=0.000000D+00  E= 4.250015D-01

 Vector   32  Occ=0.000000D+00  E= 4.320034D-01

 Vector   33  Occ=0.000000D+00  E= 4.564073D-01

 Vector   34  Occ=0.000000D+00  E= 4.737175D-01

 Vector   35  Occ=0.000000D+00  E= 4.910901D-01

 Vector   36  Occ=0.000000D+00  E= 5.108240D-01

 Vector   37  Occ=0.000000D+00  E= 6.076408D-01

 Vector   38  Occ=0.000000D+00  E= 6.549417D-01

 Vector   39  Occ=0.000000D+00  E= 6.834611D-01

 Vector   40  Occ=0.000000D+00  E= 1.367824D+00

 Vector   41  Occ=0.000000D+00  E= 1.374548D+00

 Vector   42  Occ=0.000000D+00  E= 1.402368D+00

 Vector   43  Occ=0.000000D+00  E= 1.422118D+00

 Vector   44  Occ=0.000000D+00  E= 1.445291D+00

 Vector   45  Occ=0.000000D+00  E= 1.505823D+00

 Vector   46  Occ=0.000000D+00  E= 1.515500D+00

 Vector   47  Occ=0.000000D+00  E= 1.659911D+00

 Vector   48  Occ=0.000000D+00  E= 1.763562D+00

 Vector   49  Occ=0.000000D+00  E= 2.087913D+00

 Vector   50  Occ=0.000000D+00  E= 2.151429D+00

 Vector   51  Occ=0.000000D+00  E= 2.260296D+00

 Vector   52  Occ=0.000000D+00  E= 2.284173D+00

 Vector   53  Occ=0.000000D+00  E= 2.296254D+00

 Vector   54  Occ=0.000000D+00  E= 2.410946D+00

 Vector   55  Occ=0.000000D+00  E= 2.448917D+00

 Vector   56  Occ=0.000000D+00  E= 2.648884D+00

 Vector   57  Occ=0.000000D+00  E= 2.754883D+00

 Vector   58  Occ=0.000000D+00  E= 1.143842D+01

 Vector   59  Occ=0.000000D+00  E= 1.168710D+01

 Vector   60  Occ=0.000000D+00  E= 1.183185D+01

 Vector   61  Occ=0.000000D+00  E= 6.239134D+01

 Vector   62  Occ=0.000000D+00  E= 6.263448D+01

 Vector   63  Occ=0.000000D+00  E= 6.277740D+01

     Multipole analysis of the density
     ---------------------------------

     L   x y z        total         alpha         beta         nuclear
     -   - - -        -----         -----         ----         -------
     0   0 0 0     -0.000000    -12.000000    -12.000000     24.000000

     1   1 0 0     -0.163659     -0.081830     -0.081830      0.000000
     1   0 1 0      0.028230      0.014115      0.014115     -0.000000
     1   0 0 1      0.058778      0.029389      0.029389      0.000000

     2   2 0 0    -14.320697    -53.643098    -53.643098     92.965499
     2   1 1 0      0.048491      9.461469      9.461469    -18.874446
     2   1 0 1      0.101496     19.663196     19.663196    -39.224895
     2   0 2 0    -16.081280    -15.547670    -15.547670     15.014060
     2   0 1 1      0.831336     -9.389426     -9.389426     19.610188

 Total times  cpu:        0.9s     wall:        1.2s
