 Output coordinates in angstroms (scale by  1.889725989 to convert to a.u.)

  No.       Tag          Charge          X              Y              Z
 ---- ---------------- ---------- -------------- -------------- --------------
    1 C                    6.0000     0.30984579    -0.30197740    -0.93097775
    2 C                    6.0000     1.51718689    -0.50702506    -0.38371489
    3 H                    1.0000     1.71874824    -0.31687404     0.67224682
    4 H                    1.0000     2.35558335    -0.87574971    -0.97691182
    5 C                    6.0000    -0.92326496     0.20281730    -0.22030980
    6 H                    1.0000     0.17174794    -0.51238308    -1.99879055
    7 C                    6.0000    -0.75339037     0.50377803     1.27301478
    8 H                    1.0000    -1.27942190     1.11078366    -0.74248944
    9 H                    1.0000    -1.73322720    -0.53795622    -0.35861911
   10 H                    1.0000     0.01155542     1.27697081     1.44023676
   11 H                    1.0000    -0.45028357    -0.39563704     1.82989373
   12 H                    1.0000    -1.69696641     0.86528851     1.70635961

         Total DFT energy =     -157.009826109094

                       DFT Final Molecular Orbital Analysis
                       ------------------------------------

 Vector    1  Occ=2.000000D+00  E=-9.897512D+00

 Vector    5  Occ=2.000000D+00  E=-7.285664D-01

 Vector    6  Occ=2.000000D+00  E=-6.565584D-01

 Vector    7  Occ=2.000000D+00  E=-5.786052D-01

 Vector    8  Occ=2.000000D+00  E=-4.834528D-01

 Vector    9  Occ=2.000000D+00  E=-4.272951D-01

 Vector   10  Occ=2.000000D+00  E=-4.018042D-01

 Vector   11  Occ=2.000000D+00  E=-3.791610D-01

 Vector   12  Occ=2.000000D+00  E=-3.455010D-01

 Vector   13  Occ=2.000000D+00  E=-3.126230D-01

 Vector   14  Occ=2.000000D+00  E=-3.092456D-01

 Vector   15  Occ=2.000000D+00  E=-2.951490D-01

 Vector   16  Occ=2.000000D+00  E=-2.262751D-01

 Vector   17  Occ=0.000000D+00  E=-1.845184D-02

 Vector   18  Occ=0.000000D+00  E= 2.600219D-02

 Vector   19  Occ=0.000000D+00  E= 4.677193D-02

 Vector   20  Occ=0.000000D+00  E= 6.591887D-02

 Vector   21  Occ=0.000000D+00  E= 8.081899D-02

 Vector   22  Occ=0.000000D+00  E= 9.255638D-02

 Vector   23  Occ=0.000000D+00  E= 9.838291D-02

 Vector   24  Occ=0.000000D+00  E= 1.092880D-01

 Vector   25  Occ=0.000000D+00  E= 1.192327D-01

 Vector   26  Occ=0.000000D+00  E= 1.517353D-01

 Vector   27  Occ=0.000000D+00  E= 1.633613D-01

 Vector   28  Occ=0.000000D+00  E= 1.931010D-01

 Vector   29  Occ=0.000000D+00  E= 2.017873D-01

 Vector   30  Occ=0.000000D+00  E= 2.168007D-01

 Vector   31  Occ=0.000000D+00  E= 2.279254D-01

 Vector   32  Occ=0.000000D+00  E= 2.601371D-01

 Vector   33  Occ=0.000000D+00  E= 2.951962D-01

 Vector   34  Occ=0.000000D+00  E= 3.017381D-01

 Vector   35  Occ=0.000000D+00  E= 3.044137D-01

 Vector   36  Occ=0.000000D+00  E= 3.209595D-01

 Vector   37  Occ=0.000000D+00  E= 3.834563D-01

 Vector   38  Occ=0.000000D+00  E= 3.973830D-01

 Vector   39  Occ=0.000000D+00  E= 4.040024D-01

 Vector   40  Occ=0.000000D+00  E= 4.059456D-01

 Vector   41  Occ=0.000000D+00  E= 4.233839D-01

 Vector   42  Occ=0.000000D+00  E= 4.340434D-01

 Vector   43  Occ=0.000000D+00  E= 4.629836D-01

 Vector   44  Occ=0.000000D+00  E= 4.666402D-01

 Vector   45  Occ=0.000000D+00  E= 4.744799D-01

 Vector   46  Occ=0.000000D+00  E= 4.953905D-01

 Vector   47  Occ=0.000000D+00  E= 5.183870D-01

 Vector   48  Occ=0.000000D+00  E= 5.392592D-01

 Vector   49  Occ=0.000000D+00  E= 6.048720D-01

 Vector   50  Occ=0.000000D+00  E= 6.556298D-01

 Vector   51  Occ=0.000000D+00  E= 6.766107D-01

 Vector   52  Occ=0.000000D+00  E= 7.726222D-01

 Vector   53  Occ=0.000000D+00  E= 1.375795D+00

 Vector   54  Occ=0.000000D+00  E= 1.384760D+00

 Vector   55  Occ=0.000000D+00  E= 1.400775D+00

 Vector   56  Occ=0.000000D+00  E= 1.428284D+00

 Vector   57  Occ=0.000000D+00  E= 1.450078D+00

 Vector   58  Occ=0.000000D+00  E= 1.454119D+00

 Vector   59  Occ=0.000000D+00  E= 1.500712D+00

 Vector   60  Occ=0.000000D+00  E= 1.532617D+00

 Vector   61  Occ=0.000000D+00  E= 1.594942D+00

 Vector   62  Occ=0.000000D+00  E= 1.595515D+00

 Vector   63  Occ=0.000000D+00  E= 1.711874D+00

 Vector   64  Occ=0.000000D+00  E= 1.801250D+00

 Vector   65  Occ=0.000000D+00  E= 2.130123D+00

 Vector   66  Occ=0.000000D+00  E= 2.140760D+00

 Vector   67  Occ=0.000000D+00  E= 2.215213D+00

 Vector   68  Occ=0.000000D+00  E= 2.292043D+00

 Vector   69  Occ=0.000000D+00  E= 2.300278D+00

 Vector   70  Occ=0.000000D+00  E= 2.346122D+00

 Vector   71  Occ=0.000000D+00  E= 2.355672D+00

 Vector   72  Occ=0.000000D+00  E= 2.441418D+00

 Vector   73  Occ=0.000000D+00  E= 2.496628D+00

 Vector   74  Occ=0.000000D+00  E= 2.652729D+00

 Vector   75  Occ=0.000000D+00  E= 2.722819D+00

 Vector   76  Occ=0.000000D+00  E= 2.841593D+00

 Vector   77  Occ=0.000000D+00  E= 1.146847D+01

 Vector   78  Occ=0.000000D+00  E= 1.169158D+01

 Vector   79  Occ=0.000000D+00  E= 1.173005D+01

 Vector   80  Occ=0.000000D+00  E= 1.184123D+01

 Vector   81  Occ=0.000000D+00  E= 6.242276D+01

 Vector   82  Occ=0.000000D+00  E= 6.263639D+01

 Vector   83  Occ=0.000000D+00  E= 6.267502D+01

 Vector   84  Occ=0.000000D+00  E= 6.278947D+01

     Multipole analysis of the density
     ---------------------------------

     L   x y z        total         alpha         beta         nuclear
     -   - - -        -----         -----         ----         -------
     0   0 0 0     -0.000000    -16.000000    -16.000000     32.000000

     1   1 0 0     -0.197323     -0.098662     -0.098662     -0.000000
     1   0 1 0      0.052193      0.026097      0.026097     -0.000000
     1   0 0 1     -0.009174     -0.004587     -0.004587      0.000000

     2   2 0 0    -19.626581    -79.740445    -79.740445    139.854309
     2   1 1 0     -0.413604     23.071954     23.071954    -46.557512
     2   1 0 1      0.274943     24.024851     24.024851    -47.774759
     2   0 2 0    -21.167730    -26.739680    -26.739680     32.311630
     2   0 1 1      0.344587    -17.790918    -17.790918     35.926423

 Total times  cpu:        2.3s     wall:        2.6s
