 Output coordinates in angstroms (scale by  1.889725989 to convert to a.u.)

  No.       Tag          Charge          X              Y              Z
 ---- ---------------- ---------- -------------- -------------- --------------
    1 C                    6.0000     0.74532643    -0.51756648    -1.33648511
    2 C                    6.0000     1.95895077    -0.72604011    -0.80412369
    3 H                    1.0000     2.17521108    -0.53823327     0.24927633
    4 H                    1.0000     2.78871660    -1.09589824    -1.40876349
    5 C                    6.0000    -0.47908100    -0.01158466    -0.61322382
    6 H                    1.0000     0.59551869    -0.72667429    -2.40303135
    7 C                    6.0000    -0.30735245     0.29084909     0.88151995
    8 H                    1.0000    -0.84085596     0.89968556    -1.12794861
    9 H                    1.0000    -1.29442023    -0.74972231    -0.74204456
   10 H                    1.0000     0.48989420     1.04189571     1.01365714
   11 H                    1.0000     0.03400582    -0.61993885     1.40216628
   12 C                    6.0000    -1.60479910     0.79792512     1.52821767
   13 H                    1.0000    -1.95219255     1.72521400     1.04588270
   14 H                    1.0000    -1.46335538     1.00940051     2.59837978
   15 H                    1.0000    -2.41079010     0.05277351     1.43699589

         Total DFT energy =     -196.271069822798

                       DFT Final Molecular Orbital Analysis
                       ------------------------------------

 Vector    1  Occ=2.000000D+00  E=-9.896448D+00

 Vector   26  Occ=0.000000D+00  E= 7.728501D-02

 Vector   27  Occ=0.000000D+00  E= 9.587336D-02

 Vector   28  Occ=0.000000D+00  E= 1.064045D-01

 Vector   29  Occ=0.000000D+00  E= 1.073437D-01

 Vector   30  Occ=0.000000D+00  E= 1.220323D-01

 Vector   31  Occ=0.000000D+00  E= 1.223696D-01

 Vector   32  Occ=0.000000D+00  E= 1.346564D-01

 Vector   33  Occ=0.000000D+00  E= 1.703661D-01

 Vector   34  Occ=0.000000D+00  E= 1.761512D-01

 Vector   35  Occ=0.000000D+00  E= 1.878505D-01

 Vector   36  Occ=0.000000D+00  E= 2.054755D-01

 Vector   37  Occ=0.000000D+00  E= 2.256461D-01

 Vector   38  Occ=0.000000D+00  E= 2.456365D-01

 Vector   39  Occ=0.000000D+00  E= 2.595382D-01

 Vector   40  Occ=0.000000D+00  E= 2.745717D-01

 Vector   41  Occ=0.000000D+00  E= 2.765075D-01

 Vector   42  Occ=0.000000D+00  E= 2.905303D-01

 Vector   43  Occ=0.000000D+00  E= 3.112886D-01

 Vector   44  Occ=0.000000D+00  E= 3.142493D-01

 Vector   45  Occ=0.000000D+00  E= 3.732465D-01

 Vector   46  Occ=0.000000D+00  E= 3.817982D-01

 Vector   47  Occ=0.000000D+00  E= 3.942808D-01

 Vector   48  Occ=0.000000D+00  E= 3.990804D-01

 Vector   49  Occ=0.000000D+00  E= 4.091353D-01

 Vector   50  Occ=0.000000D+00  E= 4.292931D-01

 Vector   51  Occ=0.000000D+00  E= 4.352305D-01

 Vector   52  Occ=0.000000D+00  E= 4.419363D-01

 Vector   53  Occ=0.000000D+00  E= 4.595485D-01

 Vector   54  Occ=0.000000D+00  E= 4.649729D-01

 Vector   55  Occ=0.000000D+00  E= 4.777160D-01

 Vector   56  Occ=0.000000D+00  E= 4.873987D-01

 Vector   57  Occ=0.000000D+00  E= 4.876710D-01

 Vector   58  Occ=0.000000D+00  E= 5.057015D-01

 Vector   59  Occ=0.000000D+00  E= 5.457229D-01

 Vector   60  Occ=0.000000D+00  E= 5.620600D-01

 Vector   61  Occ=0.000000D+00  E= 6.046129D-01

 Vector   62  Occ=0.000000D+00  E= 6.593189D-01

 Vector   63  Occ=0.000000D+00  E= 6.865604D-01

 Vector   64  Occ=0.000000D+00  E= 7.332237D-01

 Vector   65  Occ=0.000000D+00  E= 8.056725D-01

 Vector   66  Occ=0.000000D+00  E= 1.376267D+00

 Vector   67  Occ=0.000000D+00  E= 1.385526D+00

 Vector   68  Occ=0.000000D+00  E= 1.394913D+00

 Vector   69  Occ=0.000000D+00  E= 1.421688D+00

 Vector   70  Occ=0.000000D+00  E= 1.424387D+00

 Vector   71  Occ=0.000000D+00  E= 1.457539D+00

 Vector   72  Occ=0.000000D+00  E= 1.464843D+00

 Vector   73  Occ=0.000000D+00  E= 1.498801D+00

 Vector   74  Occ=0.000000D+00  E= 1.507747D+00

 Vector   75  Occ=0.000000D+00  E= 1.517412D+00

 Vector   76  Occ=0.000000D+00  E= 1.605915D+00

 Vector   77  Occ=0.000000D+00  E= 1.650274D+00

 Vector   78  Occ=0.000000D+00  E= 1.691676D+00

 Vector   79  Occ=0.000000D+00  E= 1.740897D+00

 Vector   80  Occ=0.000000D+00  E= 1.833709D+00

 Vector   81  Occ=0.000000D+00  E= 2.110335D+00

 Vector   82  Occ=0.000000D+00  E= 2.139950D+00

 Vector   83  Occ=0.000000D+00  E= 2.215805D+00

 Vector   84  Occ=0.000000D+00  E= 2.273548D+00

 Vector   85  Occ=0.000000D+00  E= 2.296684D+00

 Vector   86  Occ=0.000000D+00  E= 2.321857D+00

 Vector   87  Occ=0.000000D+00  E= 2.325103D+00

 Vector   88  Occ=0.000000D+00  E= 2.334497D+00

 Vector   89  Occ=0.000000D+00  E= 2.410830D+00

 Vector   90  Occ=0.000000D+00  E= 2.440642D+00

 Vector   91  Occ=0.000000D+00  E= 2.539072D+00

 Vector   92  Occ=0.000000D+00  E= 2.654233D+00

 Vector   93  Occ=0.000000D+00  E= 2.742698D+00

 Vector   94  Occ=0.000000D+00  E= 2.779704D+00

 Vector   95  Occ=0.000000D+00  E= 2.885739D+00

 Vector   96  Occ=0.000000D+00  E= 1.149052D+01

 Vector   97  Occ=0.000000D+00  E= 1.170736D+01

 Vector   98  Occ=0.000000D+00  E= 1.173695D+01

 Vector   99  Occ=0.000000D+00  E= 1.175347D+01

 Vector  100  Occ=0.000000D+00  E= 1.184815D+01

 Vector  101  Occ=0.000000D+00  E= 6.244565D+01

 Vector  102  Occ=0.000000D+00  E= 6.265100D+01

 Vector  103  Occ=0.000000D+00  E= 6.268364D+01

 Vector  104  Occ=0.000000D+00  E= 6.269904D+01

 Vector  105  Occ=0.000000D+00  E= 6.279801D+01

     Multipole analysis of the density
     ---------------------------------

     L   x y z        total         alpha         beta         nuclear
     -   - - -        -----         -----         ----         -------
     0   0 0 0     -0.000000    -20.000000    -20.000000     40.000000

     1   1 0 0     -0.173759     -0.086879     -0.086879     -0.000000
     1   0 1 0      0.051482      0.025741      0.025741     -0.000000
     1   0 0 1      0.016044      0.008022      0.008022     -0.000000

     2   2 0 0    -25.300874   -139.432859   -139.432859    253.564843
     2   1 1 0     -0.155049     49.851280     49.851280    -99.857608
     2   1 0 1      0.500072     74.668522     74.668522   -148.836972
     2   0 2 0    -26.177333    -45.150927    -45.150927     64.124520
     2   0 1 1      0.301288    -42.591384    -42.591384     85.484056

 Total times  cpu:        4.2s     wall:        4.5s
