 Output coordinates in angstroms (scale by  1.889725989 to convert to a.u.)

  No.       Tag          Charge          X              Y              Z
 ---- ---------------- ---------- -------------- -------------- --------------
    1 C                    6.0000    -0.46645994     0.41958267     0.23996048
    2 C                    6.0000     0.46646513    -0.41957496    -0.23996387
    3 H                    1.0000    -1.28634079     0.72932280    -0.42133078
    4 C                    6.0000    -0.48883785     0.98542524     1.63345147
    5 C                    6.0000     0.48883486    -0.98543036    -1.63344942
    6 H                    1.0000     1.28633704    -0.72932580     0.42133319
    7 H                    1.0000     0.36534659     0.62529388     2.22534693
    8 H                    1.0000    -1.41312845     0.70636015     2.16664530
    9 H                    1.0000    -0.45279499     2.08770842     1.62119486
   10 H                    1.0000    -0.36534835    -0.62529570    -2.22534505
   11 H                    1.0000     0.45278992    -2.08771277    -1.62119190
   12 H                    1.0000     1.41312583    -0.70636660    -2.16664441

         Total DFT energy =     -157.015641830044

                       DFT Final Molecular Orbital Analysis
                       ------------------------------------

 Vector    1  Occ=2.000000D+00  E=-9.888719D+00

 Vector    5  Occ=2.000000D+00  E=-7.239532D-01

 Vector    6  Occ=2.000000D+00  E=-6.596180D-01

 Vector    7  Occ=2.000000D+00  E=-5.807042D-01

 Vector    8  Occ=2.000000D+00  E=-4.905252D-01

 Vector    9  Occ=2.000000D+00  E=-3.984098D-01

 Vector   10  Occ=2.000000D+00  E=-3.945712D-01

 Vector   11  Occ=2.000000D+00  E=-3.704094D-01

 Vector   12  Occ=2.000000D+00  E=-3.570168D-01

 Vector   13  Occ=2.000000D+00  E=-3.292906D-01

 Vector   14  Occ=2.000000D+00  E=-3.188526D-01

 Vector   15  Occ=2.000000D+00  E=-2.982880D-01

 Vector   16  Occ=2.000000D+00  E=-2.110480D-01

 Vector   17  Occ=0.000000D+00  E=-9.925753D-03

 Vector   18  Occ=0.000000D+00  E= 3.698368D-02

 Vector   19  Occ=0.000000D+00  E= 4.305303D-02

 Vector   20  Occ=0.000000D+00  E= 5.322303D-02

 Vector   21  Occ=0.000000D+00  E= 9.258389D-02

 Vector   22  Occ=0.000000D+00  E= 9.299231D-02

 Vector   23  Occ=0.000000D+00  E= 1.035015D-01

 Vector   24  Occ=0.000000D+00  E= 1.095294D-01

 Vector   25  Occ=0.000000D+00  E= 1.107150D-01

 Vector   26  Occ=0.000000D+00  E= 1.407810D-01

 Vector   27  Occ=0.000000D+00  E= 1.719185D-01

 Vector   28  Occ=0.000000D+00  E= 1.904113D-01

 Vector   29  Occ=0.000000D+00  E= 2.040926D-01

 Vector   30  Occ=0.000000D+00  E= 2.131943D-01

 Vector   31  Occ=0.000000D+00  E= 2.328241D-01

 Vector   32  Occ=0.000000D+00  E= 2.659374D-01

 Vector   33  Occ=0.000000D+00  E= 2.946468D-01

 Vector   34  Occ=0.000000D+00  E= 3.131021D-01

 Vector   35  Occ=0.000000D+00  E= 3.178135D-01

 Vector   36  Occ=0.000000D+00  E= 3.206334D-01

 Vector   37  Occ=0.000000D+00  E= 3.382132D-01

 Vector   38  Occ=0.000000D+00  E= 3.696348D-01

 Vector   39  Occ=0.000000D+00  E= 4.100526D-01

 Vector   40  Occ=0.000000D+00  E= 4.203576D-01

 Vector   41  Occ=0.000000D+00  E= 4.275681D-01

 Vector   42  Occ=0.000000D+00  E= 4.322709D-01

 Vector   43  Occ=0.000000D+00  E= 4.415361D-01

 Vector   44  Occ=0.000000D+00  E= 4.680042D-01

 Vector   45  Occ=0.000000D+00  E= 4.686598D-01

 Vector   46  Occ=0.000000D+00  E= 4.826156D-01

 Vector   47  Occ=0.000000D+00  E= 4.964486D-01

 Vector   48  Occ=0.000000D+00  E= 5.382631D-01

 Vector   49  Occ=0.000000D+00  E= 6.237632D-01

 Vector   50  Occ=0.000000D+00  E= 6.758744D-01

 Vector   51  Occ=0.000000D+00  E= 7.030641D-01

 Vector   52  Occ=0.000000D+00  E= 7.289308D-01

 Vector   53  Occ=0.000000D+00  E= 1.321936D+00

 Vector   54  Occ=0.000000D+00  E= 1.375754D+00

 Vector   55  Occ=0.000000D+00  E= 1.397992D+00

 Vector   56  Occ=0.000000D+00  E= 1.427938D+00

 Vector   57  Occ=0.000000D+00  E= 1.438253D+00

 Vector   58  Occ=0.000000D+00  E= 1.461772D+00

 Vector   59  Occ=0.000000D+00  E= 1.499658D+00

 Vector   60  Occ=0.000000D+00  E= 1.539678D+00

 Vector   61  Occ=0.000000D+00  E= 1.563774D+00

 Vector   62  Occ=0.000000D+00  E= 1.624359D+00

 Vector   63  Occ=0.000000D+00  E= 1.699688D+00

 Vector   64  Occ=0.000000D+00  E= 1.845609D+00

 Vector   65  Occ=0.000000D+00  E= 2.094898D+00

 Vector   66  Occ=0.000000D+00  E= 2.120340D+00

 Vector   67  Occ=0.000000D+00  E= 2.246616D+00

 Vector   68  Occ=0.000000D+00  E= 2.282649D+00

 Vector   69  Occ=0.000000D+00  E= 2.296519D+00

 Vector   70  Occ=0.000000D+00  E= 2.303045D+00

 Vector   71  Occ=0.000000D+00  E= 2.310656D+00

 Vector   72  Occ=0.000000D+00  E= 2.394729D+00

 Vector   73  Occ=0.000000D+00  E= 2.483313D+00

 Vector   74  Occ=0.000000D+00  E= 2.667643D+00

 Vector   75  Occ=0.000000D+00  E= 2.776102D+00

 Vector   76  Occ=0.000000D+00  E= 2.781217D+00

 Vector   77  Occ=0.000000D+00  E= 1.147367D+01

 Vector   78  Occ=0.000000D+00  E= 1.169557D+01

 Vector   79  Occ=0.000000D+00  E= 1.170662D+01

 Vector   80  Occ=0.000000D+00  E= 1.189182D+01

 Vector   81  Occ=0.000000D+00  E= 6.242658D+01

 Vector   82  Occ=0.000000D+00  E= 6.264219D+01

 Vector   83  Occ=0.000000D+00  E= 6.265548D+01

 Vector   84  Occ=0.000000D+00  E= 6.283973D+01

     Multipole analysis of the density
     ---------------------------------

     L   x y z        total         alpha         beta         nuclear
     -   - - -        -----         -----         ----         -------
     0   0 0 0     -0.000000    -16.000000    -16.000000     32.000000

     1   1 0 0     -0.000000     -0.000000     -0.000000     -0.000000
     1   0 1 0     -0.000009     -0.000005     -0.000005     -0.000000
     1   0 0 1      0.000000      0.000000      0.000000     -0.000000

     2   2 0 0    -19.726640    -33.894389    -33.894389     48.062137
     2   1 1 0     -0.964495     23.507354     23.507354    -47.979203
     2   1 0 1      0.147915     28.297323     28.297323    -56.446731
     2   0 2 0    -20.298468    -55.369901    -55.369901     90.441334
     2   0 1 1      0.571651    -57.784015    -57.784015    116.139681

 Total times  cpu:        1.9s     wall:        2.2s
