 Output coordinates in angstroms (scale by  1.889725989 to convert to a.u.)

  No.       Tag          Charge          X              Y              Z
 ---- ---------------- ---------- -------------- -------------- --------------
    1 C                    6.0000    -0.58840700     0.68908573    -0.28219464
    2 C                    6.0000     0.23448237    -0.17826608    -0.90215080
    3 H                    1.0000    -1.15509039     1.38648161    -0.91000124
    4 C                    6.0000    -0.83301387     0.82390645     1.19649085
    5 H                    1.0000     0.28660177    -0.13315885    -1.99617214
    6 C                    6.0000     1.11055643    -1.22446609    -0.26774312
    7 H                    1.0000    -0.24823983     0.11011743     1.79122587
    8 H                    1.0000    -1.89805859     0.66613611     1.43556382
    9 H                    1.0000    -0.57998161     1.83862330     1.54675577
   10 H                    1.0000     0.85183963    -2.23122935    -0.63631517
   11 H                    1.0000     1.03088578    -1.23926352     0.82706518
   12 H                    1.0000     2.17033559    -1.05926679    -0.52453570

         Total DFT energy =     -157.014038856853

                       DFT Final Molecular Orbital Analysis
                       ------------------------------------

 Vector    1  Occ=2.000000D+00  E=-9.888876D+00

 Vector    5  Occ=2.000000D+00  E=-7.233981D-01

 Vector    6  Occ=2.000000D+00  E=-6.553204D-01

 Vector    7  Occ=2.000000D+00  E=-5.927660D-01

 Vector    8  Occ=2.000000D+00  E=-4.717676D-01

 Vector    9  Occ=2.000000D+00  E=-4.296080D-01

 Vector   10  Occ=2.000000D+00  E=-3.717211D-01

 Vector   11  Occ=2.000000D+00  E=-3.710929D-01

 Vector   12  Occ=2.000000D+00  E=-3.565910D-01

 Vector   13  Occ=2.000000D+00  E=-3.408306D-01

 Vector   14  Occ=2.000000D+00  E=-3.191183D-01

 Vector   15  Occ=2.000000D+00  E=-2.909969D-01

 Vector   16  Occ=2.000000D+00  E=-2.108239D-01

 Vector   17  Occ=0.000000D+00  E=-8.337023D-03

 Vector   18  Occ=0.000000D+00  E= 2.551736D-02

 Vector   19  Occ=0.000000D+00  E= 4.891639D-02

 Vector   20  Occ=0.000000D+00  E= 6.019910D-02

 Vector   21  Occ=0.000000D+00  E= 9.276335D-02

 Vector   22  Occ=0.000000D+00  E= 9.609232D-02

 Vector   23  Occ=0.000000D+00  E= 9.860559D-02

 Vector   24  Occ=0.000000D+00  E= 1.057366D-01

 Vector   25  Occ=0.000000D+00  E= 1.320137D-01

 Vector   26  Occ=0.000000D+00  E= 1.460299D-01

 Vector   27  Occ=0.000000D+00  E= 1.742609D-01

 Vector   28  Occ=0.000000D+00  E= 1.889674D-01

 Vector   29  Occ=0.000000D+00  E= 1.984971D-01

 Vector   30  Occ=0.000000D+00  E= 2.350940D-01

 Vector   31  Occ=0.000000D+00  E= 2.472276D-01

 Vector   32  Occ=0.000000D+00  E= 2.508145D-01

 Vector   33  Occ=0.000000D+00  E= 2.846480D-01

 Vector   34  Occ=0.000000D+00  E= 3.017618D-01

 Vector   35  Occ=0.000000D+00  E= 3.200167D-01

 Vector   36  Occ=0.000000D+00  E= 3.412224D-01

 Vector   37  Occ=0.000000D+00  E= 3.485588D-01

 Vector   38  Occ=0.000000D+00  E= 3.853633D-01

 Vector   39  Occ=0.000000D+00  E= 3.973588D-01

 Vector   40  Occ=0.000000D+00  E= 4.236733D-01

 Vector   41  Occ=0.000000D+00  E= 4.295832D-01

 Vector   42  Occ=0.000000D+00  E= 4.375659D-01

 Vector   43  Occ=0.000000D+00  E= 4.408883D-01

 Vector   44  Occ=0.000000D+00  E= 4.606591D-01

 Vector   45  Occ=0.000000D+00  E= 4.675308D-01

 Vector   46  Occ=0.000000D+00  E= 4.994774D-01

 Vector   47  Occ=0.000000D+00  E= 5.066322D-01

 Vector   48  Occ=0.000000D+00  E= 5.343574D-01

 Vector   49  Occ=0.000000D+00  E= 6.240633D-01

 Vector   50  Occ=0.000000D+00  E= 6.702395D-01

 Vector   51  Occ=0.000000D+00  E= 7.091083D-01

 Vector   52  Occ=0.000000D+00  E= 7.451850D-01

 Vector   53  Occ=0.000000D+00  E= 1.333946D+00

 Vector   54  Occ=0.000000D+00  E= 1.380907D+00

 Vector   55  Occ=0.000000D+00  E= 1.418531D+00

 Vector   56  Occ=0.000000D+00  E= 1.423641D+00

 Vector   57  Occ=0.000000D+00  E= 1.440214D+00

 Vector   58  Occ=0.000000D+00  E= 1.470455D+00

 Vector   59  Occ=0.000000D+00  E= 1.486640D+00

 Vector   60  Occ=0.000000D+00  E= 1.560137D+00

 Vector   61  Occ=0.000000D+00  E= 1.564960D+00

 Vector   62  Occ=0.000000D+00  E= 1.604689D+00

 Vector   63  Occ=0.000000D+00  E= 1.727927D+00

 Vector   64  Occ=0.000000D+00  E= 1.805195D+00

 Vector   65  Occ=0.000000D+00  E= 2.063430D+00

 Vector   66  Occ=0.000000D+00  E= 2.151295D+00

 Vector   67  Occ=0.000000D+00  E= 2.257497D+00

 Vector   68  Occ=0.000000D+00  E= 2.280913D+00

 Vector   69  Occ=0.000000D+00  E= 2.300095D+00

 Vector   70  Occ=0.000000D+00  E= 2.306874D+00

 Vector   71  Occ=0.000000D+00  E= 2.328442D+00

 Vector   72  Occ=0.000000D+00  E= 2.420672D+00

 Vector   73  Occ=0.000000D+00  E= 2.469589D+00

 Vector   74  Occ=0.000000D+00  E= 2.691574D+00

 Vector   75  Occ=0.000000D+00  E= 2.702316D+00

 Vector   76  Occ=0.000000D+00  E= 2.849561D+00

 Vector   77  Occ=0.000000D+00  E= 1.147722D+01

 Vector   78  Occ=0.000000D+00  E= 1.167459D+01

 Vector   79  Occ=0.000000D+00  E= 1.172895D+01

 Vector   80  Occ=0.000000D+00  E= 1.189089D+01

 Vector   81  Occ=0.000000D+00  E= 6.242986D+01

 Vector   82  Occ=0.000000D+00  E= 6.262008D+01

 Vector   83  Occ=0.000000D+00  E= 6.267857D+01

 Vector   84  Occ=0.000000D+00  E= 6.283916D+01

     Multipole analysis of the density
     ---------------------------------

     L   x y z        total         alpha         beta         nuclear
     -   - - -        -----         -----         ----         -------
     0   0 0 0     -0.000000    -16.000000    -16.000000     32.000000

     1   1 0 0      0.025791      0.012895      0.012895      0.000000
     1   0 1 0     -0.037289     -0.018645     -0.018645     -0.000000
     1   0 0 1      0.086343      0.043172      0.043172      0.000000

     2   2 0 0    -20.191355    -56.316731    -56.316731     92.442107
     2   1 1 0     -1.106165     43.077218     43.077218    -87.260602
     2   1 0 1     -0.304181     22.082303     22.082303    -44.468788
     2   0 2 0    -19.971698    -62.696915    -62.696915    105.422132
     2   0 1 1      0.175907    -20.681365    -20.681365     41.538637

 Total times  cpu:        2.1s     wall:        2.4s
