 Output coordinates in angstroms (scale by  1.889725989 to convert to a.u.)

  No.       Tag          Charge          X              Y              Z
 ---- ---------------- ---------- -------------- -------------- --------------
    1 C                    6.0000    -0.59951542     0.80255290    -0.45086700
    2 C                    6.0000     0.14730898    -0.12593532    -1.07900314
    3 H                    1.0000    -1.14306562     1.52624786    -1.07136544
    4 C                    6.0000    -0.81485580     0.96357688     1.03284389
    5 H                    1.0000     0.18365486    -0.09619679    -2.17537706
    6 C                    6.0000     0.98493478    -1.21298255    -0.45422950
    7 H                    1.0000    -0.16330706     0.28229710     1.60062608
    8 C                    6.0000    -2.28520694     0.72831045     1.43924501
    9 H                    1.0000    -0.52461462     1.98779524     1.32934551
   10 H                    1.0000     0.65689280    -2.19164826    -0.84908226
   11 H                    1.0000     0.82891853    -1.25237448     0.63440293
   12 C                    6.0000     2.48886326    -1.03724383    -0.75344393
   13 H                    1.0000    -2.59253338    -0.30192419     1.20706133
   14 H                    1.0000    -2.95897360     1.40842205     0.89538071
   15 H                    1.0000    -2.43076033     0.89763007     2.51673434
   16 H                    1.0000     2.67514939    -1.00996138    -1.83828541
   17 H                    1.0000     3.07692345    -1.86517979    -0.32973242
   18 H                    1.0000     2.86254233    -0.09477864    -0.32698040

         Total DFT energy =     -235.535906073792

                       DFT Final Molecular Orbital Analysis
                       ------------------------------------

 Vector    1  Occ=2.000000D+00  E=-9.892224D+00

 Vector   47  Occ=0.000000D+00  E= 2.491760D-01

 Vector   48  Occ=0.000000D+00  E= 2.777606D-01

 Vector   49  Occ=0.000000D+00  E= 2.818549D-01

 Vector   50  Occ=0.000000D+00  E= 2.985663D-01

 Vector   51  Occ=0.000000D+00  E= 3.384639D-01

 Vector   52  Occ=0.000000D+00  E= 3.521771D-01

 Vector   53  Occ=0.000000D+00  E= 3.636124D-01

 Vector   54  Occ=0.000000D+00  E= 3.746471D-01

 Vector   55  Occ=0.000000D+00  E= 3.871374D-01

 Vector   56  Occ=0.000000D+00  E= 3.902140D-01

 Vector   57  Occ=0.000000D+00  E= 3.958336D-01

 Vector   58  Occ=0.000000D+00  E= 4.127878D-01

 Vector   59  Occ=0.000000D+00  E= 4.158413D-01

 Vector   60  Occ=0.000000D+00  E= 4.200105D-01

 Vector   61  Occ=0.000000D+00  E= 4.292257D-01

 Vector   62  Occ=0.000000D+00  E= 4.383650D-01

 Vector   63  Occ=0.000000D+00  E= 4.533168D-01

 Vector   64  Occ=0.000000D+00  E= 4.631762D-01

 Vector   65  Occ=0.000000D+00  E= 4.746187D-01

 Vector   66  Occ=0.000000D+00  E= 4.754735D-01

 Vector   67  Occ=0.000000D+00  E= 4.890919D-01

 Vector   68  Occ=0.000000D+00  E= 4.971582D-01

 Vector   69  Occ=0.000000D+00  E= 5.098418D-01

 Vector   70  Occ=0.000000D+00  E= 5.182487D-01

 Vector   71  Occ=0.000000D+00  E= 5.460663D-01

 Vector   72  Occ=0.000000D+00  E= 5.558032D-01

 Vector   73  Occ=0.000000D+00  E= 6.152908D-01

 Vector   74  Occ=0.000000D+00  E= 6.572492D-01

 Vector   75  Occ=0.000000D+00  E= 6.873502D-01

 Vector   76  Occ=0.000000D+00  E= 7.255494D-01

 Vector   77  Occ=0.000000D+00  E= 7.784478D-01

 Vector   78  Occ=0.000000D+00  E= 7.970960D-01

 Vector   79  Occ=0.000000D+00  E= 1.368326D+00

 Vector   80  Occ=0.000000D+00  E= 1.389621D+00

 Vector   81  Occ=0.000000D+00  E= 1.393217D+00

 Vector   82  Occ=0.000000D+00  E= 1.424943D+00

 Vector   83  Occ=0.000000D+00  E= 1.430864D+00

 Vector   84  Occ=0.000000D+00  E= 1.443255D+00

 Vector   85  Occ=0.000000D+00  E= 1.453985D+00

 Vector   86  Occ=0.000000D+00  E= 1.468373D+00

 Vector   87  Occ=0.000000D+00  E= 1.502889D+00

 Vector   88  Occ=0.000000D+00  E= 1.515373D+00

 Vector   89  Occ=0.000000D+00  E= 1.538278D+00

 Vector   90  Occ=0.000000D+00  E= 1.570656D+00

 Vector   91  Occ=0.000000D+00  E= 1.615573D+00

 Vector   92  Occ=0.000000D+00  E= 1.624023D+00

 Vector   93  Occ=0.000000D+00  E= 1.684805D+00

 Vector   94  Occ=0.000000D+00  E= 1.730228D+00

 Vector   95  Occ=0.000000D+00  E= 1.806690D+00

 Vector   96  Occ=0.000000D+00  E= 1.821481D+00

 Vector   97  Occ=0.000000D+00  E= 2.109050D+00

 Vector   98  Occ=0.000000D+00  E= 2.119862D+00

 Vector   99  Occ=0.000000D+00  E= 2.163609D+00

 Vector  100  Occ=0.000000D+00  E= 2.225611D+00

 Vector  101  Occ=0.000000D+00  E= 2.289947D+00

 Vector  102  Occ=0.000000D+00  E= 2.296504D+00

 Vector  103  Occ=0.000000D+00  E= 2.316964D+00

 Vector  104  Occ=0.000000D+00  E= 2.327678D+00

 Vector  105  Occ=0.000000D+00  E= 2.339055D+00

 Vector  106  Occ=0.000000D+00  E= 2.394591D+00

 Vector  107  Occ=0.000000D+00  E= 2.397495D+00

 Vector  108  Occ=0.000000D+00  E= 2.478653D+00

 Vector  109  Occ=0.000000D+00  E= 2.584219D+00

 Vector  110  Occ=0.000000D+00  E= 2.666298D+00

 Vector  111  Occ=0.000000D+00  E= 2.693481D+00

 Vector  112  Occ=0.000000D+00  E= 2.756189D+00

 Vector  113  Occ=0.000000D+00  E= 2.785796D+00

 Vector  114  Occ=0.000000D+00  E= 2.864354D+00

 Vector  115  Occ=0.000000D+00  E= 1.152251D+01

 Vector  116  Occ=0.000000D+00  E= 1.168084D+01

 Vector  117  Occ=0.000000D+00  E= 1.169465D+01

 Vector  118  Occ=0.000000D+00  E= 1.171708D+01

 Vector  119  Occ=0.000000D+00  E= 1.178694D+01

 Vector  120  Occ=0.000000D+00  E= 1.194115D+01

 Vector  121  Occ=0.000000D+00  E= 6.247711D+01

 Vector  122  Occ=0.000000D+00  E= 6.262653D+01

 Vector  123  Occ=0.000000D+00  E= 6.263748D+01

 Vector  124  Occ=0.000000D+00  E= 6.266328D+01

 Vector  125  Occ=0.000000D+00  E= 6.273519D+01

 Vector  126  Occ=0.000000D+00  E= 6.289125D+01

     Multipole analysis of the density
     ---------------------------------

     L   x y z        total         alpha         beta         nuclear
     -   - - -        -----         -----         ----         -------
     0   0 0 0     -0.000000    -24.000000    -24.000000     48.000000

     1   1 0 0      0.027137      0.013568      0.013568      0.000000
     1   0 1 0     -0.041468     -0.020734     -0.020734     -0.000000
     1   0 0 1      0.093212      0.046606      0.046606     -0.000000

     2   2 0 0    -30.945686   -246.797658   -246.797658    462.649630
     2   1 1 0     -1.115189    106.504045    106.504045   -214.123279
     2   1 0 1     -0.078458    101.702504    101.702504   -203.483467
     2   0 2 0    -29.753891   -100.808066   -100.808066    171.862241
     2   0 1 1      0.246504    -48.609056    -48.609056     97.464616

 Total times  cpu:        6.3s     wall:        6.7s
