 Output coordinates in angstroms (scale by  1.889725989 to convert to a.u.)

  No.       Tag          Charge          X              Y              Z
 ---- ---------------- ---------- -------------- -------------- --------------
    1 C                    6.0000    -0.42652649     0.22027403     0.46991877
    2 C                    6.0000     0.42652213    -0.22026973    -0.46992663
    3 H                    1.0000    -0.51899301     1.30267594     0.63576438
    4 C                    6.0000    -1.30998561    -0.65127726     1.32484504
    5 C                    6.0000     1.30998859     0.65128282    -1.32484446
    6 H                    1.0000     0.51899042    -1.30267212    -0.63576792
    7 H                    1.0000    -1.10348887    -1.71196874     1.10553476
    8 C                    6.0000    -2.81075841    -0.35823353     1.12121296
    9 H                    1.0000    -1.06025319    -0.49723646     2.39071501
   10 H                    1.0000    -3.10663368    -0.54949836     0.07922274
   11 H                    1.0000    -3.04228590     0.69430577     1.34728322
   12 H                    1.0000    -3.43033768    -0.98831887     1.77684293
   13 H                    1.0000     1.10349559     1.71197461    -1.10553812
   14 H                    1.0000     1.06026037     0.49723959    -2.39071619
   15 C                    6.0000     2.81075825     0.35822549    -1.12120882
   16 H                    1.0000     3.10663119     0.54950226    -0.07921898
   17 H                    1.0000     3.43034587     0.98830276    -1.77683909
   18 H                    1.0000     3.04227823    -0.69431724    -1.34726413

         Total DFT energy =     -235.537732829560

                       DFT Final Molecular Orbital Analysis
                       ------------------------------------

 Vector    1  Occ=2.000000D+00  E=-9.892152D+00

 Vector   47  Occ=0.000000D+00  E= 2.598492D-01

 Vector   48  Occ=0.000000D+00  E= 2.635632D-01

 Vector   49  Occ=0.000000D+00  E= 2.658736D-01

 Vector   50  Occ=0.000000D+00  E= 2.949239D-01

 Vector   51  Occ=0.000000D+00  E= 3.319677D-01

 Vector   52  Occ=0.000000D+00  E= 3.579233D-01

 Vector   53  Occ=0.000000D+00  E= 3.658024D-01

 Vector   54  Occ=0.000000D+00  E= 3.829935D-01

 Vector   55  Occ=0.000000D+00  E= 3.876221D-01

 Vector   56  Occ=0.000000D+00  E= 3.880219D-01

 Vector   57  Occ=0.000000D+00  E= 3.942333D-01

 Vector   58  Occ=0.000000D+00  E= 4.147244D-01

 Vector   59  Occ=0.000000D+00  E= 4.167652D-01

 Vector   60  Occ=0.000000D+00  E= 4.206580D-01

 Vector   61  Occ=0.000000D+00  E= 4.355221D-01

 Vector   62  Occ=0.000000D+00  E= 4.456561D-01

 Vector   63  Occ=0.000000D+00  E= 4.476162D-01

 Vector   64  Occ=0.000000D+00  E= 4.577756D-01

 Vector   65  Occ=0.000000D+00  E= 4.706476D-01

 Vector   66  Occ=0.000000D+00  E= 4.827262D-01

 Vector   67  Occ=0.000000D+00  E= 4.891266D-01

 Vector   68  Occ=0.000000D+00  E= 4.898363D-01

 Vector   69  Occ=0.000000D+00  E= 4.935161D-01

 Vector   70  Occ=0.000000D+00  E= 4.981928D-01

 Vector   71  Occ=0.000000D+00  E= 5.389546D-01

 Vector   72  Occ=0.000000D+00  E= 5.556374D-01

 Vector   73  Occ=0.000000D+00  E= 6.197173D-01

 Vector   74  Occ=0.000000D+00  E= 6.437067D-01

 Vector   75  Occ=0.000000D+00  E= 7.020022D-01

 Vector   76  Occ=0.000000D+00  E= 7.202808D-01

 Vector   77  Occ=0.000000D+00  E= 7.755974D-01

 Vector   78  Occ=0.000000D+00  E= 7.947818D-01

 Vector   79  Occ=0.000000D+00  E= 1.371612D+00

 Vector   80  Occ=0.000000D+00  E= 1.380510D+00

 Vector   81  Occ=0.000000D+00  E= 1.403447D+00

 Vector   82  Occ=0.000000D+00  E= 1.425931D+00

 Vector   83  Occ=0.000000D+00  E= 1.432947D+00

 Vector   84  Occ=0.000000D+00  E= 1.437171D+00

 Vector   85  Occ=0.000000D+00  E= 1.453970D+00

 Vector   86  Occ=0.000000D+00  E= 1.457383D+00

 Vector   87  Occ=0.000000D+00  E= 1.459577D+00

 Vector   88  Occ=0.000000D+00  E= 1.507572D+00

 Vector   89  Occ=0.000000D+00  E= 1.533653D+00

 Vector   90  Occ=0.000000D+00  E= 1.578994D+00

 Vector   91  Occ=0.000000D+00  E= 1.594164D+00

 Vector   92  Occ=0.000000D+00  E= 1.643420D+00

 Vector   93  Occ=0.000000D+00  E= 1.670930D+00

 Vector   94  Occ=0.000000D+00  E= 1.748792D+00

 Vector   95  Occ=0.000000D+00  E= 1.756360D+00

 Vector   96  Occ=0.000000D+00  E= 1.903378D+00

 Vector   97  Occ=0.000000D+00  E= 2.103488D+00

 Vector   98  Occ=0.000000D+00  E= 2.122766D+00

 Vector   99  Occ=0.000000D+00  E= 2.176053D+00

 Vector  100  Occ=0.000000D+00  E= 2.205615D+00

 Vector  101  Occ=0.000000D+00  E= 2.276830D+00

 Vector  102  Occ=0.000000D+00  E= 2.290190D+00

 Vector  103  Occ=0.000000D+00  E= 2.304666D+00

 Vector  104  Occ=0.000000D+00  E= 2.318893D+00

 Vector  105  Occ=0.000000D+00  E= 2.328547D+00

 Vector  106  Occ=0.000000D+00  E= 2.365652D+00

 Vector  107  Occ=0.000000D+00  E= 2.407736D+00

 Vector  108  Occ=0.000000D+00  E= 2.434983D+00

 Vector  109  Occ=0.000000D+00  E= 2.594310D+00

 Vector  110  Occ=0.000000D+00  E= 2.675561D+00

 Vector  111  Occ=0.000000D+00  E= 2.694019D+00

 Vector  112  Occ=0.000000D+00  E= 2.729445D+00

 Vector  113  Occ=0.000000D+00  E= 2.826503D+00

 Vector  114  Occ=0.000000D+00  E= 2.829713D+00

 Vector  115  Occ=0.000000D+00  E= 1.152481D+01

 Vector  116  Occ=0.000000D+00  E= 1.167917D+01

 Vector  117  Occ=0.000000D+00  E= 1.169677D+01

 Vector  118  Occ=0.000000D+00  E= 1.175184D+01

 Vector  119  Occ=0.000000D+00  E= 1.175218D+01

 Vector  120  Occ=0.000000D+00  E= 1.193804D+01

 Vector  121  Occ=0.000000D+00  E= 6.247963D+01

 Vector  122  Occ=0.000000D+00  E= 6.262529D+01

 Vector  123  Occ=0.000000D+00  E= 6.264106D+01

 Vector  124  Occ=0.000000D+00  E= 6.269668D+01

 Vector  125  Occ=0.000000D+00  E= 6.270094D+01

 Vector  126  Occ=0.000000D+00  E= 6.288816D+01

     Multipole analysis of the density
     ---------------------------------

     L   x y z        total         alpha         beta         nuclear
     -   - - -        -----         -----         ----         -------
     0   0 0 0     -0.000000    -24.000000    -24.000000     48.000000

     1   1 0 0      0.000006      0.000003      0.000003     -0.000000
     1   0 1 0     -0.000001     -0.000001     -0.000001     -0.000000
     1   0 0 1     -0.000000     -0.000000     -0.000000      0.000000

     2   2 0 0    -30.719991   -344.166426   -344.166426    657.612860
     2   1 1 0      0.230802    -54.600449    -54.600449    109.431699
     2   1 0 1     -1.199232    160.274132    160.274132   -321.747497
     2   0 2 0    -29.324535    -51.236795    -51.236795     73.149055
     2   0 1 1      0.180572     36.098368     36.098368    -72.016163

 Total times  cpu:        5.5s     wall:        5.9s
