 Output coordinates in angstroms (scale by  1.889725989 to convert to a.u.)

  No.       Tag          Charge          X              Y              Z
 ---- ---------------- ---------- -------------- -------------- --------------
    1 C                    6.0000     0.11076816    -0.03318837    -0.04260944
    2 C                    6.0000     1.31972401    -0.39528439    -0.50818115
    3 C                    6.0000    -1.14609004    -0.16925047    -0.87118272
    4 C                    6.0000    -0.08170496     0.53700138     1.34396057
    5 H                    1.0000     1.44804850    -0.80632218    -1.51155811
    6 H                    1.0000     2.22189103    -0.29290471     0.09827535
    7 H                    1.0000    -0.93533527    -0.58903338    -1.86383561
    8 H                    1.0000    -1.63646062     0.80948984    -1.00771351
    9 H                    1.0000    -1.88058607    -0.82189755    -0.36959869
   10 H                    1.0000     0.86851227     0.60861333     1.88981206
   11 H                    1.0000    -0.77265462    -0.08773246     1.93500258
   12 H                    1.0000    -0.52959836     1.54411806     1.29769229

         Total DFT energy =     -157.016641822112

                       DFT Final Molecular Orbital Analysis
                       ------------------------------------

 Vector    1  Occ=2.000000D+00  E=-9.906157D+00

 Vector    5  Occ=2.000000D+00  E=-7.348705D-01

 Vector    6  Occ=2.000000D+00  E=-6.289933D-01

 Vector    7  Occ=2.000000D+00  E=-6.161943D-01

 Vector    8  Occ=2.000000D+00  E=-4.718198D-01

 Vector    9  Occ=2.000000D+00  E=-4.074342D-01

 Vector   10  Occ=2.000000D+00  E=-3.991507D-01

 Vector   11  Occ=2.000000D+00  E=-3.874550D-01

 Vector   12  Occ=2.000000D+00  E=-3.435918D-01

 Vector   13  Occ=2.000000D+00  E=-3.280431D-01

 Vector   14  Occ=2.000000D+00  E=-3.241948D-01

 Vector   15  Occ=2.000000D+00  E=-2.998553D-01

 Vector   16  Occ=2.000000D+00  E=-2.162791D-01

 Vector   17  Occ=0.000000D+00  E=-1.630958D-02

 Vector   18  Occ=0.000000D+00  E= 2.088146D-02

 Vector   19  Occ=0.000000D+00  E= 6.660881D-02

 Vector   20  Occ=0.000000D+00  E= 6.727805D-02

 Vector   21  Occ=0.000000D+00  E= 7.905007D-02

 Vector   22  Occ=0.000000D+00  E= 9.197631D-02

 Vector   23  Occ=0.000000D+00  E= 9.460061D-02

 Vector   24  Occ=0.000000D+00  E= 1.194731D-01

 Vector   25  Occ=0.000000D+00  E= 1.237963D-01

 Vector   26  Occ=0.000000D+00  E= 1.439890D-01

 Vector   27  Occ=0.000000D+00  E= 1.725471D-01

 Vector   28  Occ=0.000000D+00  E= 1.840196D-01

 Vector   29  Occ=0.000000D+00  E= 1.864484D-01

 Vector   30  Occ=0.000000D+00  E= 2.102797D-01

 Vector   31  Occ=0.000000D+00  E= 2.327525D-01

 Vector   32  Occ=0.000000D+00  E= 2.897523D-01

 Vector   33  Occ=0.000000D+00  E= 2.914342D-01

 Vector   34  Occ=0.000000D+00  E= 3.099008D-01

 Vector   35  Occ=0.000000D+00  E= 3.108220D-01

 Vector   36  Occ=0.000000D+00  E= 3.135673D-01

 Vector   37  Occ=0.000000D+00  E= 3.351830D-01

 Vector   38  Occ=0.000000D+00  E= 3.899269D-01

 Vector   39  Occ=0.000000D+00  E= 3.917185D-01

 Vector   40  Occ=0.000000D+00  E= 4.278240D-01

 Vector   41  Occ=0.000000D+00  E= 4.363385D-01

 Vector   42  Occ=0.000000D+00  E= 4.472854D-01

 Vector   43  Occ=0.000000D+00  E= 4.486745D-01

 Vector   44  Occ=0.000000D+00  E= 4.674508D-01

 Vector   45  Occ=0.000000D+00  E= 4.698047D-01

 Vector   46  Occ=0.000000D+00  E= 4.938428D-01

 Vector   47  Occ=0.000000D+00  E= 5.052064D-01

 Vector   48  Occ=0.000000D+00  E= 5.410099D-01

 Vector   49  Occ=0.000000D+00  E= 6.337664D-01

 Vector   50  Occ=0.000000D+00  E= 6.454723D-01

 Vector   51  Occ=0.000000D+00  E= 6.832368D-01

 Vector   52  Occ=0.000000D+00  E= 8.237507D-01

 Vector   53  Occ=0.000000D+00  E= 1.320209D+00

 Vector   54  Occ=0.000000D+00  E= 1.384541D+00

 Vector   55  Occ=0.000000D+00  E= 1.418210D+00

 Vector   56  Occ=0.000000D+00  E= 1.425853D+00

 Vector   57  Occ=0.000000D+00  E= 1.442694D+00

 Vector   58  Occ=0.000000D+00  E= 1.456515D+00

 Vector   59  Occ=0.000000D+00  E= 1.484846D+00

 Vector   60  Occ=0.000000D+00  E= 1.554787D+00

 Vector   61  Occ=0.000000D+00  E= 1.577043D+00

 Vector   62  Occ=0.000000D+00  E= 1.650664D+00

 Vector   63  Occ=0.000000D+00  E= 1.752296D+00

 Vector   64  Occ=0.000000D+00  E= 1.859179D+00

 Vector   65  Occ=0.000000D+00  E= 2.082914D+00

 Vector   66  Occ=0.000000D+00  E= 2.166380D+00

 Vector   67  Occ=0.000000D+00  E= 2.193312D+00

 Vector   68  Occ=0.000000D+00  E= 2.284065D+00

 Vector   69  Occ=0.000000D+00  E= 2.303975D+00

 Vector   70  Occ=0.000000D+00  E= 2.340517D+00

 Vector   71  Occ=0.000000D+00  E= 2.340864D+00

 Vector   72  Occ=0.000000D+00  E= 2.425930D+00

 Vector   73  Occ=0.000000D+00  E= 2.452556D+00

 Vector   74  Occ=0.000000D+00  E= 2.671351D+00

 Vector   75  Occ=0.000000D+00  E= 2.761927D+00

 Vector   76  Occ=0.000000D+00  E= 2.898735D+00

 Vector   77  Occ=0.000000D+00  E= 1.147456D+01

 Vector   78  Occ=0.000000D+00  E= 1.168625D+01

 Vector   79  Occ=0.000000D+00  E= 1.174232D+01

 Vector   80  Occ=0.000000D+00  E= 1.185819D+01

 Vector   81  Occ=0.000000D+00  E= 6.242744D+01

 Vector   82  Occ=0.000000D+00  E= 6.263752D+01

 Vector   83  Occ=0.000000D+00  E= 6.268967D+01

 Vector   84  Occ=0.000000D+00  E= 6.280393D+01

     Multipole analysis of the density
     ---------------------------------

     L   x y z        total         alpha         beta         nuclear
     -   - - -        -----         -----         ----         -------
     0   0 0 0     -0.000000    -16.000000    -16.000000     32.000000

     1   1 0 0     -0.216990     -0.108495     -0.108495     -0.000000
     1   0 1 0      0.065049      0.032525      0.032525      0.000000
     1   0 0 1      0.083556      0.041778      0.041778      0.000000

     2   2 0 0    -19.751096    -70.940251    -70.940251    122.129405
     2   1 1 0     -0.124487      6.221652      6.221652    -12.567790
     2   1 0 1      0.264603     -4.966441     -4.966441     10.197484
     2   0 2 0    -21.020451    -24.834319    -24.834319     28.648187
     2   0 1 1      0.613798    -19.671048    -19.671048     39.955894

 Total times  cpu:        2.1s     wall:        2.4s
