 Output coordinates in angstroms (scale by  1.889725989 to convert to a.u.)

  No.       Tag          Charge          X              Y              Z
 ---- ---------------- ---------- -------------- -------------- --------------
    1 C                    6.0000     0.61546000     1.06018640    -0.10028699
    2 C                    6.0000     1.75640912     0.63063739    -0.66249936
    3 H                    1.0000     0.37301903     2.12924042    -0.14638717
    4 C                    6.0000    -0.40017185     0.22125248     0.58785931
    5 H                    1.0000     2.43441174     1.31670018    -1.17223681
    6 H                    1.0000     2.05826837    -0.41837068    -0.63063593
    7 C                    6.0000    -0.42779126    -1.29624561     0.46359400
    8 C                    6.0000    -1.50698920    -0.47297638    -0.22909987
    9 H                    1.0000    -0.73856893     0.62383387     1.54613811
   10 H                    1.0000    -1.44779451    -0.37778950    -1.31246928
   11 H                    1.0000    -2.51712340    -0.48299086     0.17852655
   12 H                    1.0000    -0.70417372    -1.87250433     1.34530863
   13 H                    1.0000     0.32046070    -1.77524483    -0.16564681

         Total DFT energy =     -195.036033923688

                       DFT Final Molecular Orbital Analysis
                       ------------------------------------

 Vector    1  Occ=2.000000D+00  E=-9.909966D+00

 Vector   20  Occ=0.000000D+00  E=-2.580398D-02

 Vector   21  Occ=0.000000D+00  E= 2.977261D-02

 Vector   22  Occ=0.000000D+00  E= 4.070414D-02

 Vector   23  Occ=0.000000D+00  E= 5.566392D-02

 Vector   24  Occ=0.000000D+00  E= 6.024531D-02

 Vector   25  Occ=0.000000D+00  E= 8.815887D-02

 Vector   26  Occ=0.000000D+00  E= 9.796179D-02

 Vector   27  Occ=0.000000D+00  E= 1.002758D-01

 Vector   28  Occ=0.000000D+00  E= 1.119610D-01

 Vector   29  Occ=0.000000D+00  E= 1.420538D-01

 Vector   30  Occ=0.000000D+00  E= 1.517533D-01

 Vector   31  Occ=0.000000D+00  E= 1.579660D-01

 Vector   32  Occ=0.000000D+00  E= 1.712409D-01

 Vector   33  Occ=0.000000D+00  E= 1.834123D-01

 Vector   34  Occ=0.000000D+00  E= 2.206437D-01

 Vector   35  Occ=0.000000D+00  E= 2.288062D-01

 Vector   36  Occ=0.000000D+00  E= 2.448515D-01

 Vector   37  Occ=0.000000D+00  E= 2.600018D-01

 Vector   38  Occ=0.000000D+00  E= 2.752999D-01

 Vector   39  Occ=0.000000D+00  E= 3.018231D-01

 Vector   40  Occ=0.000000D+00  E= 3.125201D-01

 Vector   41  Occ=0.000000D+00  E= 3.316708D-01

 Vector   42  Occ=0.000000D+00  E= 3.447192D-01

 Vector   43  Occ=0.000000D+00  E= 3.541182D-01

 Vector   44  Occ=0.000000D+00  E= 3.651411D-01

 Vector   45  Occ=0.000000D+00  E= 3.799453D-01

 Vector   46  Occ=0.000000D+00  E= 3.883395D-01

 Vector   47  Occ=0.000000D+00  E= 4.092276D-01

 Vector   48  Occ=0.000000D+00  E= 4.118894D-01

 Vector   49  Occ=0.000000D+00  E= 4.327737D-01

 Vector   50  Occ=0.000000D+00  E= 4.507302D-01

 Vector   51  Occ=0.000000D+00  E= 4.610234D-01

 Vector   52  Occ=0.000000D+00  E= 4.732173D-01

 Vector   53  Occ=0.000000D+00  E= 4.898770D-01

 Vector   54  Occ=0.000000D+00  E= 5.101967D-01

 Vector   55  Occ=0.000000D+00  E= 5.215405D-01

 Vector   56  Occ=0.000000D+00  E= 6.079418D-01

 Vector   57  Occ=0.000000D+00  E= 6.161596D-01

 Vector   58  Occ=0.000000D+00  E= 6.211205D-01

 Vector   59  Occ=0.000000D+00  E= 6.531198D-01

 Vector   60  Occ=0.000000D+00  E= 6.854775D-01

 Vector   61  Occ=0.000000D+00  E= 7.276145D-01

 Vector   62  Occ=0.000000D+00  E= 1.356048D+00

 Vector   63  Occ=0.000000D+00  E= 1.363366D+00

 Vector   64  Occ=0.000000D+00  E= 1.387340D+00

 Vector   65  Occ=0.000000D+00  E= 1.398960D+00

 Vector   66  Occ=0.000000D+00  E= 1.438081D+00

 Vector   67  Occ=0.000000D+00  E= 1.459061D+00

 Vector   68  Occ=0.000000D+00  E= 1.473310D+00

 Vector   69  Occ=0.000000D+00  E= 1.508165D+00

 Vector   70  Occ=0.000000D+00  E= 1.548986D+00

 Vector   71  Occ=0.000000D+00  E= 1.568748D+00

 Vector   72  Occ=0.000000D+00  E= 1.590419D+00

 Vector   73  Occ=0.000000D+00  E= 1.658745D+00

 Vector   74  Occ=0.000000D+00  E= 1.677962D+00

 Vector   75  Occ=0.000000D+00  E= 1.757152D+00

 Vector   76  Occ=0.000000D+00  E= 1.823347D+00

 Vector   77  Occ=0.000000D+00  E= 2.120686D+00

 Vector   78  Occ=0.000000D+00  E= 2.162338D+00

 Vector   79  Occ=0.000000D+00  E= 2.200411D+00

 Vector   80  Occ=0.000000D+00  E= 2.289699D+00

 Vector   81  Occ=0.000000D+00  E= 2.303972D+00

 Vector   82  Occ=0.000000D+00  E= 2.320609D+00

 Vector   83  Occ=0.000000D+00  E= 2.416000D+00

 Vector   84  Occ=0.000000D+00  E= 2.459891D+00

 Vector   85  Occ=0.000000D+00  E= 2.573528D+00

 Vector   86  Occ=0.000000D+00  E= 2.611653D+00

 Vector   87  Occ=0.000000D+00  E= 2.660976D+00

 Vector   88  Occ=0.000000D+00  E= 2.710346D+00

 Vector   89  Occ=0.000000D+00  E= 2.735132D+00

 Vector   90  Occ=0.000000D+00  E= 1.149344D+01

 Vector   91  Occ=0.000000D+00  E= 1.166864D+01

 Vector   92  Occ=0.000000D+00  E= 1.167792D+01

 Vector   93  Occ=0.000000D+00  E= 1.176295D+01

 Vector   94  Occ=0.000000D+00  E= 1.185361D+01

 Vector   95  Occ=0.000000D+00  E= 6.244711D+01

 Vector   96  Occ=0.000000D+00  E= 6.261603D+01

 Vector   97  Occ=0.000000D+00  E= 6.262669D+01

 Vector   98  Occ=0.000000D+00  E= 6.270285D+01

 Vector   99  Occ=0.000000D+00  E= 6.280286D+01

     Multipole analysis of the density
     ---------------------------------

     L   x y z        total         alpha         beta         nuclear
     -   - - -        -----         -----         ----         -------
     0   0 0 0     -0.000000    -19.000000    -19.000000     38.000000

     1   1 0 0     -0.174986     -0.087493     -0.087493     -0.000000
     1   0 1 0     -0.010307     -0.005153     -0.005153     -0.000000
     1   0 0 1      0.070751      0.035375      0.035375      0.000000

     2   2 0 0    -23.839456   -112.526558   -112.526558    201.213659
     2   1 1 0     -0.364671    -40.934671    -40.934671     81.504672
     2   1 0 1     -1.487958     22.074779     22.074779    -45.637516
     2   0 2 0    -23.441818    -73.702092    -73.702092    123.962366
     2   0 1 1     -0.262231     13.728169     13.728169    -27.718569

 Total times  cpu:        3.3s     wall:        3.6s
