 Output coordinates in angstroms (scale by  1.889725989 to convert to a.u.)

  No.       Tag          Charge          X              Y              Z
 ---- ---------------- ---------- -------------- -------------- --------------
    1 C                    6.0000    -0.16967935     0.94344181     0.03403180
    2 C                    6.0000     1.16164306     1.05970556    -0.09819161
    3 H                    1.0000    -0.83958308     1.79849712     0.11701081
    4 O                    8.0000    -0.92465444    -0.22484646     0.08919552
    5 H                    1.0000     1.60669851     2.05252133    -0.12509637
    6 H                    1.0000     1.83895105     0.21163313    -0.18190575
    7 C                    6.0000    -0.18462767    -1.48112696    -0.00789798
    8 H                    1.0000    -0.93870849    -2.27058730     0.05443876
    9 H                    1.0000     0.53346294    -1.57853432     0.82197953
   10 H                    1.0000     0.35239834    -1.54688081    -0.96764432

         Total DFT energy =     -192.891096788140

                       DFT Final Molecular Orbital Analysis
                       ------------------------------------

 Vector    1  Occ=2.000000D+00  E=-1.879373D+01

 Vector    2  Occ=2.000000D+00  E=-9.948979D+00

 Vector    3  Occ=2.000000D+00  E=-9.947090D+00

 Vector    4  Occ=2.000000D+00  E=-9.881326D+00

 Vector    5  Occ=2.000000D+00  E=-9.727489D-01

 Vector    6  Occ=2.000000D+00  E=-6.957786D-01

 Vector    7  Occ=2.000000D+00  E=-6.444174D-01

 Vector    8  Occ=2.000000D+00  E=-5.197889D-01

 Vector    9  Occ=2.000000D+00  E=-4.596112D-01

 Vector   10  Occ=2.000000D+00  E=-4.288095D-01

 Vector   11  Occ=2.000000D+00  E=-4.140088D-01

 Vector   12  Occ=2.000000D+00  E=-3.744868D-01

 Vector   13  Occ=2.000000D+00  E=-3.402722D-01

 Vector   14  Occ=2.000000D+00  E=-3.038311D-01

 Vector   15  Occ=2.000000D+00  E=-2.893963D-01

 Vector   16  Occ=2.000000D+00  E=-2.025328D-01

 Vector   17  Occ=0.000000D+00  E=-9.774086D-03

 Vector   18  Occ=0.000000D+00  E= 2.491191D-02

 Vector   19  Occ=0.000000D+00  E= 3.720207D-02

 Vector   20  Occ=0.000000D+00  E= 5.746217D-02

 Vector   21  Occ=0.000000D+00  E= 7.380278D-02

 Vector   22  Occ=0.000000D+00  E= 9.015730D-02

 Vector   23  Occ=0.000000D+00  E= 9.272921D-02

 Vector   24  Occ=0.000000D+00  E= 1.143791D-01

 Vector   25  Occ=0.000000D+00  E= 1.612398D-01

 Vector   26  Occ=0.000000D+00  E= 1.888393D-01

 Vector   27  Occ=0.000000D+00  E= 1.943182D-01

 Vector   28  Occ=0.000000D+00  E= 2.188978D-01

 Vector   29  Occ=0.000000D+00  E= 2.430678D-01

 Vector   30  Occ=0.000000D+00  E= 2.550212D-01

 Vector   31  Occ=0.000000D+00  E= 2.721159D-01

 Vector   32  Occ=0.000000D+00  E= 2.881491D-01

 Vector   33  Occ=0.000000D+00  E= 3.091449D-01

 Vector   34  Occ=0.000000D+00  E= 3.770188D-01

 Vector   35  Occ=0.000000D+00  E= 3.912994D-01

 Vector   36  Occ=0.000000D+00  E= 4.129916D-01

 Vector   37  Occ=0.000000D+00  E= 4.146224D-01

 Vector   38  Occ=0.000000D+00  E= 4.452925D-01

 Vector   39  Occ=0.000000D+00  E= 4.644553D-01

 Vector   40  Occ=0.000000D+00  E= 4.839160D-01

 Vector   41  Occ=0.000000D+00  E= 4.854511D-01

 Vector   42  Occ=0.000000D+00  E= 5.168722D-01

 Vector   43  Occ=0.000000D+00  E= 5.472450D-01

 Vector   44  Occ=0.000000D+00  E= 5.874462D-01

 Vector   45  Occ=0.000000D+00  E= 6.068631D-01

 Vector   46  Occ=0.000000D+00  E= 6.590769D-01

 Vector   47  Occ=0.000000D+00  E= 7.197666D-01

 Vector   48  Occ=0.000000D+00  E= 1.168317D+00

 Vector   49  Occ=0.000000D+00  E= 1.354834D+00

 Vector   50  Occ=0.000000D+00  E= 1.366473D+00

 Vector   51  Occ=0.000000D+00  E= 1.387656D+00

 Vector   52  Occ=0.000000D+00  E= 1.407048D+00

 Vector   53  Occ=0.000000D+00  E= 1.439128D+00

 Vector   54  Occ=0.000000D+00  E= 1.467474D+00

 Vector   55  Occ=0.000000D+00  E= 1.472083D+00

 Vector   56  Occ=0.000000D+00  E= 1.620446D+00

 Vector   57  Occ=0.000000D+00  E= 1.726186D+00

 Vector   58  Occ=0.000000D+00  E= 2.084253D+00

 Vector   59  Occ=0.000000D+00  E= 2.126303D+00

 Vector   60  Occ=0.000000D+00  E= 2.239297D+00

 Vector   61  Occ=0.000000D+00  E= 2.251483D+00

 Vector   62  Occ=0.000000D+00  E= 2.294414D+00

 Vector   63  Occ=0.000000D+00  E= 2.381614D+00

 Vector   64  Occ=0.000000D+00  E= 2.400231D+00

 Vector   65  Occ=0.000000D+00  E= 2.562493D+00

 Vector   66  Occ=0.000000D+00  E= 2.563540D+00

 Vector   67  Occ=0.000000D+00  E= 2.636782D+00

 Vector   68  Occ=0.000000D+00  E= 2.746485D+00

 Vector   69  Occ=0.000000D+00  E= 2.834097D+00

 Vector   70  Occ=0.000000D+00  E= 4.586686D+00

 Vector   71  Occ=0.000000D+00  E= 1.139733D+01

 Vector   72  Occ=0.000000D+00  E= 1.160181D+01

 Vector   73  Occ=0.000000D+00  E= 1.178962D+01

 Vector   74  Occ=0.000000D+00  E= 2.189804D+01

 Vector   75  Occ=0.000000D+00  E= 6.234774D+01

 Vector   76  Occ=0.000000D+00  E= 6.254361D+01

 Vector   77  Occ=0.000000D+00  E= 6.273235D+01

 Vector   78  Occ=0.000000D+00  E= 1.178396D+02

     Multipole analysis of the density
     ---------------------------------

     L   x y z        total         alpha         beta         nuclear
     -   - - -        -----         -----         ----         -------
     0   0 0 0     -0.000000    -16.000000    -16.000000     32.000000

     1   1 0 0      0.358862      0.179431      0.179431      0.000000
     1   0 1 0     -0.331853     -0.165927     -0.165927      0.000000
     1   0 0 1     -0.042076     -0.021038     -0.021038      0.000000

     2   2 0 0    -20.042457    -51.573609    -51.573609     83.104761
     2   1 1 0     -0.558330    -22.867355    -22.867355     45.176379
     2   1 0 1     -0.062204      3.463953      3.463953     -6.990111
     2   0 2 0    -15.559340    -84.874702    -84.874702    154.190064
     2   0 1 1      0.146198      1.021315      1.021315     -1.896432

 Total times  cpu:        1.8s     wall:        2.0s
