 Output coordinates in angstroms (scale by  1.889725989 to convert to a.u.)

  No.       Tag          Charge          X              Y              Z
 ---- ---------------- ---------- -------------- -------------- --------------
    1 C                    6.0000     0.09483265     1.49648796     0.01671272
    2 C                    6.0000     1.42635536     1.61839195    -0.11397685
    3 H                    1.0000    -0.57484646     2.35220625     0.09901637
    4 O                    8.0000    -0.65764650     0.32768037     0.07081099
    5 H                    1.0000     1.86659530     2.61354565    -0.13987019
    6 H                    1.0000     2.10800350     0.77393195    -0.19732769
    7 C                    6.0000     0.08098051    -0.94205474    -0.02522139
    8 C                    6.0000    -0.93680533    -2.06444295     0.05832697
    9 H                    1.0000     0.81283634    -0.99387307     0.79959399
   10 H                    1.0000     0.63347192    -0.96356494    -0.98068901
   11 H                    1.0000    -1.48402938    -2.02281641     1.00959054
   12 H                    1.0000    -0.43013608    -3.03847230    -0.00937091
   13 H                    1.0000    -1.66290232    -1.99269342    -0.76247962

         Total DFT energy =     -232.158158616678

                       DFT Final Molecular Orbital Analysis
                       ------------------------------------

 Vector    1  Occ=2.000000D+00  E=-1.878957D+01

 Vector   20  Occ=2.000000D+00  E=-2.005150D-01

 Vector   21  Occ=0.000000D+00  E=-8.139351D-03

 Vector   22  Occ=0.000000D+00  E= 2.361867D-02

 Vector   23  Occ=0.000000D+00  E= 4.588413D-02

 Vector   24  Occ=0.000000D+00  E= 4.929164D-02

 Vector   25  Occ=0.000000D+00  E= 6.206512D-02

 Vector   26  Occ=0.000000D+00  E= 7.634120D-02

 Vector   27  Occ=0.000000D+00  E= 8.659334D-02

 Vector   28  Occ=0.000000D+00  E= 9.297461D-02

 Vector   29  Occ=0.000000D+00  E= 1.115767D-01

 Vector   30  Occ=0.000000D+00  E= 1.225759D-01

 Vector   31  Occ=0.000000D+00  E= 1.439299D-01

 Vector   32  Occ=0.000000D+00  E= 1.558430D-01

 Vector   33  Occ=0.000000D+00  E= 1.824316D-01

 Vector   34  Occ=0.000000D+00  E= 2.021461D-01

 Vector   35  Occ=0.000000D+00  E= 2.211284D-01

 Vector   36  Occ=0.000000D+00  E= 2.449842D-01

 Vector   37  Occ=0.000000D+00  E= 2.543313D-01

 Vector   38  Occ=0.000000D+00  E= 2.652865D-01

 Vector   39  Occ=0.000000D+00  E= 2.677690D-01

 Vector   40  Occ=0.000000D+00  E= 2.813631D-01

 Vector   41  Occ=0.000000D+00  E= 3.035048D-01

 Vector   42  Occ=0.000000D+00  E= 3.091613D-01

 Vector   43  Occ=0.000000D+00  E= 3.809305D-01

 Vector   44  Occ=0.000000D+00  E= 4.016067D-01

 Vector   45  Occ=0.000000D+00  E= 4.060521D-01

 Vector   46  Occ=0.000000D+00  E= 4.087086D-01

 Vector   47  Occ=0.000000D+00  E= 4.288013D-01

 Vector   48  Occ=0.000000D+00  E= 4.411259D-01

 Vector   49  Occ=0.000000D+00  E= 4.548157D-01

 Vector   50  Occ=0.000000D+00  E= 4.612478D-01

 Vector   51  Occ=0.000000D+00  E= 4.718100D-01

 Vector   52  Occ=0.000000D+00  E= 4.980339D-01

 Vector   53  Occ=0.000000D+00  E= 5.152465D-01

 Vector   54  Occ=0.000000D+00  E= 5.543440D-01

 Vector   55  Occ=0.000000D+00  E= 5.886926D-01

 Vector   56  Occ=0.000000D+00  E= 5.935257D-01

 Vector   57  Occ=0.000000D+00  E= 6.162093D-01

 Vector   58  Occ=0.000000D+00  E= 6.905742D-01

 Vector   59  Occ=0.000000D+00  E= 7.180908D-01

 Vector   60  Occ=0.000000D+00  E= 7.737829D-01

 Vector   61  Occ=0.000000D+00  E= 1.192038D+00

 Vector   62  Occ=0.000000D+00  E= 1.332091D+00

 Vector   63  Occ=0.000000D+00  E= 1.359522D+00

 Vector   64  Occ=0.000000D+00  E= 1.372975D+00

 Vector   65  Occ=0.000000D+00  E= 1.404911D+00

 Vector   66  Occ=0.000000D+00  E= 1.444945D+00

 Vector   67  Occ=0.000000D+00  E= 1.455073D+00

 Vector   68  Occ=0.000000D+00  E= 1.493952D+00

 Vector   69  Occ=0.000000D+00  E= 1.517313D+00

 Vector   70  Occ=0.000000D+00  E= 1.541966D+00

 Vector   71  Occ=0.000000D+00  E= 1.557231D+00

 Vector   72  Occ=0.000000D+00  E= 1.687072D+00

 Vector   73  Occ=0.000000D+00  E= 1.740988D+00

 Vector   74  Occ=0.000000D+00  E= 2.094080D+00

 Vector   75  Occ=0.000000D+00  E= 2.144403D+00

 Vector   76  Occ=0.000000D+00  E= 2.230650D+00

 Vector   77  Occ=0.000000D+00  E= 2.255324D+00

 Vector   78  Occ=0.000000D+00  E= 2.281512D+00

 Vector   79  Occ=0.000000D+00  E= 2.288715D+00

 Vector   80  Occ=0.000000D+00  E= 2.296089D+00

 Vector   81  Occ=0.000000D+00  E= 2.383325D+00

 Vector   82  Occ=0.000000D+00  E= 2.399965D+00

 Vector   83  Occ=0.000000D+00  E= 2.575308D+00

 Vector   84  Occ=0.000000D+00  E= 2.608556D+00

 Vector   85  Occ=0.000000D+00  E= 2.688710D+00

 Vector   86  Occ=0.000000D+00  E= 2.756131D+00

 Vector   87  Occ=0.000000D+00  E= 2.760409D+00

 Vector   88  Occ=0.000000D+00  E= 2.902351D+00

 Vector   89  Occ=0.000000D+00  E= 4.609372D+00

 Vector   90  Occ=0.000000D+00  E= 1.141465D+01

 Vector   91  Occ=0.000000D+00  E= 1.163278D+01

 Vector   92  Occ=0.000000D+00  E= 1.170446D+01

 Vector   93  Occ=0.000000D+00  E= 1.179542D+01

 Vector   94  Occ=0.000000D+00  E= 2.191951D+01

 Vector   95  Occ=0.000000D+00  E= 6.236444D+01

 Vector   96  Occ=0.000000D+00  E= 6.257204D+01

 Vector   97  Occ=0.000000D+00  E= 6.265465D+01

 Vector   98  Occ=0.000000D+00  E= 6.273760D+01

 Vector   99  Occ=0.000000D+00  E= 1.178620D+02

     Multipole analysis of the density
     ---------------------------------

     L   x y z        total         alpha         beta         nuclear
     -   - - -        -----         -----         ----         -------
     0   0 0 0     -0.000000    -20.000000    -20.000000     40.000000

     1   1 0 0      0.286945      0.143473      0.143473      0.000000
     1   0 1 0     -0.385425     -0.192712     -0.192712      0.000000
     1   0 0 1     -0.035155     -0.017577     -0.017577      0.000000

     2   2 0 0    -24.555735    -75.662045    -75.662045    126.768355
     2   1 1 0     -0.297509    -63.510313    -63.510313    126.723116
     2   1 0 1     -0.085846      4.617564      4.617564     -9.320973
     2   0 2 0    -21.160887   -176.779549   -176.779549    332.398211
     2   0 1 1      0.105281      3.588786      3.588786     -7.072291

 Total times  cpu:        2.8s     wall:        3.1s
