 Output coordinates in angstroms (scale by  1.889725989 to convert to a.u.)

  No.       Tag          Charge          X              Y              Z
 ---- ---------------- ---------- -------------- -------------- --------------
    1 O                    8.0000    -0.06590047     0.07367940    -0.05707045
    2 H                    1.0000     0.91754204     0.07085057    -0.05487930
    3 H                    1.0000    -0.39033830    -0.66028576     0.51144292

         Total DFT energy =      -76.250314603388

                    DFT Final Alpha Molecular Orbital Analysis
                    ------------------------------------------

 Vector    1  Occ=1.000000D+00  E=-1.845607D+01

 Vector    2  Occ=1.000000D+00  E=-6.351697D-01

 Vector    3  Occ=1.000000D+00  E=-2.017754D-01

 Vector    4  Occ=1.000000D+00  E=-4.003481D-02

 Vector    5  Occ=1.000000D+00  E= 2.691890D-02

 Vector    6  Occ=1.000000D+00  E= 2.010087D-01

 Vector    7  Occ=0.000000D+00  E= 2.604594D-01

 Vector    8  Occ=0.000000D+00  E= 5.746231D-01

 Vector    9  Occ=0.000000D+00  E= 5.967174D-01

 Vector   10  Occ=0.000000D+00  E= 6.339385D-01

 Vector   11  Occ=0.000000D+00  E= 6.350325D-01

 Vector   12  Occ=0.000000D+00  E= 7.582124D-01

 Vector   13  Occ=0.000000D+00  E= 1.091818D+00

 Vector   14  Occ=0.000000D+00  E= 2.279648D+00

 Vector   15  Occ=0.000000D+00  E= 2.328408D+00

 Vector   16  Occ=0.000000D+00  E= 2.712506D+00

 Vector   17  Occ=0.000000D+00  E= 2.853505D+00

 Vector   18  Occ=0.000000D+00  E= 3.078614D+00

 Vector   19  Occ=0.000000D+00  E= 4.668936D+00

 Vector   20  Occ=0.000000D+00  E= 2.197775D+01

 Vector   21  Occ=0.000000D+00  E= 1.179160D+02

 Vector    1  Occ=1.000000D+00  E=-1.845183D+01

 Vector    2  Occ=1.000000D+00  E=-6.245857D-01

 Vector    3  Occ=1.000000D+00  E=-1.923284D-01

 Vector    4  Occ=1.000000D+00  E=-3.168880D-02

 Vector    5  Occ=1.000000D+00  E= 3.316723D-02

 Vector    6  Occ=0.000000D+00  E= 2.415732D-01

 Vector    7  Occ=0.000000D+00  E= 3.046014D-01

 Vector    8  Occ=0.000000D+00  E= 5.950161D-01

 Vector    9  Occ=0.000000D+00  E= 6.234353D-01

 Vector   10  Occ=0.000000D+00  E= 6.501052D-01

 Vector   11  Occ=0.000000D+00  E= 6.534000D-01

 Vector   12  Occ=0.000000D+00  E= 7.812995D-01

 Vector   13  Occ=0.000000D+00  E= 1.107829D+00

 Vector   14  Occ=0.000000D+00  E= 2.300409D+00

 Vector   15  Occ=0.000000D+00  E= 2.348981D+00

 Vector   16  Occ=0.000000D+00  E= 2.718053D+00

 Vector   17  Occ=0.000000D+00  E= 2.863714D+00

 Vector   18  Occ=0.000000D+00  E= 3.084566D+00

 Vector   19  Occ=0.000000D+00  E= 4.679273D+00

 Vector   20  Occ=0.000000D+00  E= 2.198361D+01

 Vector   21  Occ=0.000000D+00  E= 1.179222D+02

     Multipole analysis of the density
     ---------------------------------

     L   x y z        total         alpha         beta         nuclear
     -   - - -        -----         -----         ----         -------
     0   0 0 0     -1.000000     -6.000000     -5.000000     10.000000

     1   1 0 0     -0.041840     -0.338026      0.296186     -0.000000
     1   0 1 0      0.046781      0.377929     -0.331148      0.000000
     1   0 0 1     -0.036235     -0.292736      0.256500      0.000000

     2   2 0 0     -9.573546     -9.446054     -3.802082      3.674591
     2   1 1 0      0.119183     -0.745693     -0.148946      1.013822
     2   1 0 1     -0.092316      0.577598      0.115370     -0.785284
     2   0 2 0     -9.486544     -7.783768     -3.432694      1.729918
     2   0 1 1      0.249947      1.285002      0.304901     -1.339956

 Total times  cpu:        0.3s     wall:        0.6s
