 Output coordinates in angstroms (scale by  1.889725989 to convert to a.u.)

  No.       Tag          Charge          X              Y              Z
 ---- ---------------- ---------- -------------- -------------- --------------
    1 O                    8.0000     0.00000040    -0.00000060    -0.00000716
    2 H                    1.0000     0.96928937    -0.15553414     0.04424473
    3 H                    1.0000    -0.34721883     0.91486873    -0.09013876
    4 H                    1.0000    -0.62207372    -0.75932981     0.04595131

         Total DFT energy =      -76.818428520068

                    DFT Final Alpha Molecular Orbital Analysis
                    ------------------------------------------

 Vector    1  Occ=1.000000D+00  E=-1.885328D+01

 Vector    2  Occ=1.000000D+00  E=-1.036724D+00

 Vector    3  Occ=1.000000D+00  E=-5.858252D-01

 Vector    4  Occ=1.000000D+00  E=-5.858248D-01

 Vector    5  Occ=1.000000D+00  E=-3.550188D-01

 Vector    6  Occ=1.000000D+00  E=-7.449836D-02

 Vector    7  Occ=0.000000D+00  E= 1.454446D-02

 Vector    8  Occ=0.000000D+00  E= 1.454458D-02

 Vector    9  Occ=0.000000D+00  E= 2.691292D-01

 Vector   10  Occ=0.000000D+00  E= 2.691298D-01

 Vector   11  Occ=0.000000D+00  E= 2.866158D-01

 Vector   12  Occ=0.000000D+00  E= 3.283090D-01

 Vector   13  Occ=0.000000D+00  E= 4.481956D-01

 Vector   14  Occ=0.000000D+00  E= 4.481958D-01

 Vector   15  Occ=0.000000D+00  E= 7.868110D-01

 Vector   16  Occ=0.000000D+00  E= 1.972078D+00

 Vector   17  Occ=0.000000D+00  E= 1.996496D+00

 Vector   18  Occ=0.000000D+00  E= 1.996496D+00

 Vector   19  Occ=0.000000D+00  E= 2.339173D+00

 Vector   20  Occ=0.000000D+00  E= 2.763854D+00

 Vector   21  Occ=0.000000D+00  E= 2.763856D+00

 Vector   22  Occ=0.000000D+00  E= 4.324151D+00

 Vector   23  Occ=0.000000D+00  E= 2.162002D+01

 Vector   24  Occ=0.000000D+00  E= 1.175610D+02

 Vector    1  Occ=1.000000D+00  E=-1.884830D+01

 Vector    2  Occ=1.000000D+00  E=-1.028101D+00

 Vector    3  Occ=1.000000D+00  E=-5.727960D-01

 Vector    4  Occ=1.000000D+00  E=-5.727957D-01

 Vector    5  Occ=1.000000D+00  E=-3.470636D-01

 Vector    6  Occ=0.000000D+00  E=-3.615480D-02

 Vector    7  Occ=0.000000D+00  E= 5.693804D-02

 Vector    8  Occ=0.000000D+00  E= 5.693810D-02

 Vector    9  Occ=0.000000D+00  E= 2.980342D-01

 Vector   10  Occ=0.000000D+00  E= 2.980349D-01

 Vector   11  Occ=0.000000D+00  E= 3.206690D-01

 Vector   12  Occ=0.000000D+00  E= 3.419764D-01

 Vector   13  Occ=0.000000D+00  E= 4.796507D-01

 Vector   14  Occ=0.000000D+00  E= 4.796509D-01

 Vector   15  Occ=0.000000D+00  E= 8.041017D-01

 Vector   16  Occ=0.000000D+00  E= 2.003725D+00

 Vector   17  Occ=0.000000D+00  E= 2.027011D+00

 Vector   18  Occ=0.000000D+00  E= 2.027012D+00

 Vector   19  Occ=0.000000D+00  E= 2.345053D+00

 Vector   20  Occ=0.000000D+00  E= 2.775114D+00

 Vector   21  Occ=0.000000D+00  E= 2.775116D+00

 Vector   22  Occ=0.000000D+00  E= 4.333599D+00

 Vector   23  Occ=0.000000D+00  E= 2.162405D+01

 Vector   24  Occ=0.000000D+00  E= 1.175696D+02

     Multipole analysis of the density
     ---------------------------------

     L   x y z        total         alpha         beta         nuclear
     -   - - -        -----         -----         ----         -------
     0   0 0 0     -0.000000     -6.000000     -5.000000     11.000000

     1   1 0 0     -0.000001      0.000001     -0.000002     -0.000000
     1   0 1 0     -0.000000     -0.000004      0.000004      0.000000
     1   0 0 1      0.000026     -0.000012      0.000038     -0.000000

     2   2 0 0     -6.651776     -8.359584     -3.459731      5.167539
     2   1 1 0      0.003017     -0.008931     -0.002128      0.014077
     2   1 0 1      0.034842     -0.103379     -0.024615      0.162836
     2   0 2 0     -6.658884     -8.338498     -3.454710      5.134324
     2   0 1 1     -0.094933      0.281667      0.067065     -0.443665

 Total times  cpu:        0.3s     wall:        0.5s
