 Output coordinates in angstroms (scale by  1.889725989 to convert to a.u.)

  No.       Tag          Charge          X              Y              Z
 ---- ---------------- ---------- -------------- -------------- --------------
    1 C                    6.0000    -0.00062929     0.00968701     0.04501533
    2 O                    8.0000     0.00164820     0.16816179     1.34971209
    3 C                    6.0000    -0.00833477     1.25423520    -0.73049374
    4 C                    6.0000     0.01201573    -1.32785904    -0.57197009
    5 H                    1.0000     0.29595998     2.11739483    -0.12974800
    6 H                    1.0000    -0.25376758    -2.14206659     0.11396808
    7 H                    1.0000     0.60170572     1.15993505    -1.64035759
    8 H                    1.0000    -1.04361142     1.43912077    -1.08567212
    9 H                    1.0000    -0.64356424    -1.35306925    -1.45524131
   10 H                    1.0000     1.03124698    -1.52464363    -0.96094732
   11 H                    1.0000    -0.01946500    -0.65834437     1.90499244

         Total DFT energy =     -193.460443091072

                    DFT Final Alpha Molecular Orbital Analysis
                    ------------------------------------------

 Vector    1  Occ=1.000000D+00  E=-1.878081D+01

 Vector    2  Occ=1.000000D+00  E=-9.908683D+00

 Vector    3  Occ=1.000000D+00  E=-9.891220D+00

 Vector    4  Occ=1.000000D+00  E=-9.877828D+00

 Vector    5  Occ=1.000000D+00  E=-9.786754D-01

 Vector    6  Occ=1.000000D+00  E=-6.948200D-01

 Vector    7  Occ=1.000000D+00  E=-6.377427D-01

 Vector    8  Occ=1.000000D+00  E=-5.469839D-01

 Vector    9  Occ=1.000000D+00  E=-4.352488D-01

 Vector   10  Occ=1.000000D+00  E=-4.000345D-01

 Vector   11  Occ=1.000000D+00  E=-3.849533D-01

 Vector   12  Occ=1.000000D+00  E=-3.486275D-01

 Vector   13  Occ=1.000000D+00  E=-3.376222D-01

 Vector   14  Occ=1.000000D+00  E=-3.310578D-01

 Vector   15  Occ=1.000000D+00  E=-2.911140D-01

 Vector   16  Occ=1.000000D+00  E=-2.801292D-01

 Vector   17  Occ=0.000000D+00  E=-2.090821D-02

 Vector   18  Occ=0.000000D+00  E=-4.386781D-03

 Vector   19  Occ=0.000000D+00  E= 4.172745D-02

 Vector   20  Occ=0.000000D+00  E= 7.146457D-02

 Vector   21  Occ=0.000000D+00  E= 8.228927D-02

 Vector   22  Occ=0.000000D+00  E= 9.801273D-02

 Vector   23  Occ=0.000000D+00  E= 1.073396D-01

 Vector   24  Occ=0.000000D+00  E= 1.201178D-01

 Vector   25  Occ=0.000000D+00  E= 1.322679D-01

 Vector   26  Occ=0.000000D+00  E= 1.716627D-01

 Vector   27  Occ=0.000000D+00  E= 2.063432D-01

 Vector   28  Occ=0.000000D+00  E= 2.159603D-01

 Vector   29  Occ=0.000000D+00  E= 2.291747D-01

 Vector   30  Occ=0.000000D+00  E= 2.528280D-01

 Vector   31  Occ=0.000000D+00  E= 2.803946D-01

 Vector   32  Occ=0.000000D+00  E= 3.056501D-01

 Vector   33  Occ=0.000000D+00  E= 3.084655D-01

 Vector   34  Occ=0.000000D+00  E= 3.265566D-01

 Vector   35  Occ=0.000000D+00  E= 3.383421D-01

 Vector   36  Occ=0.000000D+00  E= 3.581145D-01

 Vector   37  Occ=0.000000D+00  E= 4.261752D-01

 Vector   38  Occ=0.000000D+00  E= 4.298456D-01

 Vector   39  Occ=0.000000D+00  E= 4.355763D-01

 Vector   40  Occ=0.000000D+00  E= 4.602489D-01

 Vector   41  Occ=0.000000D+00  E= 4.748303D-01

 Vector   42  Occ=0.000000D+00  E= 4.854681D-01

 Vector   43  Occ=0.000000D+00  E= 5.014372D-01

 Vector   44  Occ=0.000000D+00  E= 5.140408D-01

 Vector   45  Occ=0.000000D+00  E= 5.256495D-01

 Vector   46  Occ=0.000000D+00  E= 5.500534D-01

 Vector   47  Occ=0.000000D+00  E= 6.166990D-01

 Vector   48  Occ=0.000000D+00  E= 7.080431D-01

 Vector   49  Occ=0.000000D+00  E= 7.749244D-01

 Vector   50  Occ=0.000000D+00  E= 1.105761D+00

 Vector   51  Occ=0.000000D+00  E= 1.348719D+00

 Vector   52  Occ=0.000000D+00  E= 1.407373D+00

 Vector   53  Occ=0.000000D+00  E= 1.427880D+00

 Vector   54  Occ=0.000000D+00  E= 1.439215D+00

 Vector   55  Occ=0.000000D+00  E= 1.458465D+00

 Vector   56  Occ=0.000000D+00  E= 1.522782D+00

 Vector   57  Occ=0.000000D+00  E= 1.568851D+00

 Vector   58  Occ=0.000000D+00  E= 1.694478D+00

 Vector   59  Occ=0.000000D+00  E= 1.746873D+00

 Vector   60  Occ=0.000000D+00  E= 2.036544D+00

 Vector   61  Occ=0.000000D+00  E= 2.095469D+00

 Vector   62  Occ=0.000000D+00  E= 2.164713D+00

 Vector   63  Occ=0.000000D+00  E= 2.294426D+00

 Vector   64  Occ=0.000000D+00  E= 2.307791D+00

 Vector   65  Occ=0.000000D+00  E= 2.315890D+00

 Vector   66  Occ=0.000000D+00  E= 2.330683D+00

 Vector   67  Occ=0.000000D+00  E= 2.469286D+00

 Vector   68  Occ=0.000000D+00  E= 2.530865D+00

 Vector   69  Occ=0.000000D+00  E= 2.615541D+00

 Vector   70  Occ=0.000000D+00  E= 2.766635D+00

 Vector   71  Occ=0.000000D+00  E= 2.811436D+00

 Vector   72  Occ=0.000000D+00  E= 3.042366D+00

 Vector   73  Occ=0.000000D+00  E= 4.625733D+00

 Vector   74  Occ=0.000000D+00  E= 1.158657D+01

 Vector   75  Occ=0.000000D+00  E= 1.172333D+01

 Vector   76  Occ=0.000000D+00  E= 1.175495D+01

 Vector   77  Occ=0.000000D+00  E= 2.192055D+01

 Vector   78  Occ=0.000000D+00  E= 6.252821D+01

 Vector   79  Occ=0.000000D+00  E= 6.267172D+01

 Vector   80  Occ=0.000000D+00  E= 6.270515D+01

 Vector   81  Occ=0.000000D+00  E= 1.178616D+02

     Multipole analysis of the density
     ---------------------------------

     L   x y z        total         alpha         beta         nuclear
     -   - - -        -----         -----         ----         -------
     0   0 0 0     -0.000000    -17.000000    -16.000000     33.000000

     1   1 0 0     -0.013188     -0.001394     -0.011794     -0.000000
     1   0 1 0     -0.652009     -0.342972     -0.309038      0.000000
     1   0 0 1      0.002188     -0.033102      0.035289      0.000000

     2   2 0 0    -20.377848    -16.899858    -14.485782     11.007792
     2   1 1 0      0.221212      1.290872      0.639621     -1.709281
     2   1 0 1     -0.065450     -0.058487     -0.007299      0.000336
     2   0 2 0    -19.019864    -77.172406    -75.125876    133.278418
     2   0 1 1     -2.572996      0.264016      0.469396     -3.306408

 Total times  cpu:       21.4s     wall:       22.3s
