 Output coordinates in angstroms (scale by  1.889725989 to convert to a.u.)

  No.       Tag          Charge          X              Y              Z
 ---- ---------------- ---------- -------------- -------------- --------------
    1 C                    6.0000    -0.79843942     0.30990207     0.33887916
    2 C                    6.0000     0.67514423     0.45746085     0.50260204
    3 C                    6.0000     1.66879601    -0.25625929    -0.27992317
    4 H                    1.0000     1.49651091    -1.34751320    -0.19139238
    5 H                    1.0000     2.69072439     0.00369119     0.00593318
    6 H                    1.0000     1.49715931    -0.06728824    -1.35841214
    7 O                    8.0000     1.14128512     1.28635695     1.41321037
    8 Cl                  17.0000    -1.29853960    -0.88185979    -0.96882573
    9 H                    1.0000    -1.24691761     1.28575182     0.08549893
   10 H                    1.0000    -1.24862695    -0.03152884     1.28668789
   11 H                    1.0000     0.48303709     1.79102609     1.96669101

         Total DFT energy =     -652.875973950285

                    DFT Final Alpha Molecular Orbital Analysis
                    ------------------------------------------

 Vector    1  Occ=1.000000D+00  E=-1.006728D+02

 Vector   21  Occ=1.000000D+00  E=-3.129749D-01

 Vector   22  Occ=1.000000D+00  E=-3.111640D-01

 Vector   23  Occ=1.000000D+00  E=-2.629280D-01

 Vector   24  Occ=1.000000D+00  E=-2.623087D-01

 Vector   25  Occ=0.000000D+00  E=-4.427523D-02

 Vector   26  Occ=0.000000D+00  E=-4.191389D-02

 Vector   27  Occ=0.000000D+00  E= 1.135143D-03

 Vector   28  Occ=0.000000D+00  E= 3.496955D-02

 Vector   29  Occ=0.000000D+00  E= 6.294813D-02

 Vector   30  Occ=0.000000D+00  E= 7.848152D-02

 Vector   31  Occ=0.000000D+00  E= 9.289987D-02

 Vector   32  Occ=0.000000D+00  E= 1.073158D-01

 Vector   33  Occ=0.000000D+00  E= 1.327556D-01

 Vector   34  Occ=0.000000D+00  E= 1.609604D-01

 Vector   35  Occ=0.000000D+00  E= 1.897388D-01

 Vector   36  Occ=0.000000D+00  E= 2.148182D-01

 Vector   37  Occ=0.000000D+00  E= 2.158114D-01

 Vector   38  Occ=0.000000D+00  E= 2.462588D-01

 Vector   39  Occ=0.000000D+00  E= 2.772144D-01

 Vector   40  Occ=0.000000D+00  E= 2.853410D-01

 Vector   41  Occ=0.000000D+00  E= 3.037710D-01

 Vector   42  Occ=0.000000D+00  E= 3.076408D-01

 Vector   43  Occ=0.000000D+00  E= 3.212677D-01

 Vector   44  Occ=0.000000D+00  E= 3.566217D-01

 Vector   45  Occ=0.000000D+00  E= 3.781104D-01

 Vector   46  Occ=0.000000D+00  E= 3.808129D-01

 Vector   47  Occ=0.000000D+00  E= 3.941593D-01

 Vector   48  Occ=0.000000D+00  E= 4.127921D-01

 Vector   49  Occ=0.000000D+00  E= 4.215105D-01

 Vector   50  Occ=0.000000D+00  E= 4.412398D-01

 Vector   51  Occ=0.000000D+00  E= 4.431292D-01

 Vector   52  Occ=0.000000D+00  E= 4.819140D-01

 Vector   53  Occ=0.000000D+00  E= 5.079563D-01

 Vector   54  Occ=0.000000D+00  E= 5.102358D-01

 Vector   55  Occ=0.000000D+00  E= 5.143038D-01

 Vector   56  Occ=0.000000D+00  E= 5.359282D-01

 Vector   57  Occ=0.000000D+00  E= 5.988934D-01

 Vector   58  Occ=0.000000D+00  E= 6.793095D-01

 Vector   59  Occ=0.000000D+00  E= 7.297771D-01

 Vector   60  Occ=0.000000D+00  E= 9.889817D-01

 Vector   61  Occ=0.000000D+00  E= 1.102217D+00

 Vector   62  Occ=0.000000D+00  E= 1.328288D+00

 Vector   63  Occ=0.000000D+00  E= 1.391717D+00

 Vector   64  Occ=0.000000D+00  E= 1.393676D+00

 Vector   65  Occ=0.000000D+00  E= 1.422967D+00

 Vector   66  Occ=0.000000D+00  E= 1.439980D+00

 Vector   67  Occ=0.000000D+00  E= 1.516583D+00

 Vector   68  Occ=0.000000D+00  E= 1.545046D+00

 Vector   69  Occ=0.000000D+00  E= 1.653441D+00

 Vector   70  Occ=0.000000D+00  E= 1.739900D+00

 Vector   71  Occ=0.000000D+00  E= 2.028133D+00

 Vector   72  Occ=0.000000D+00  E= 2.090207D+00

 Vector   73  Occ=0.000000D+00  E= 2.153034D+00

 Vector   74  Occ=0.000000D+00  E= 2.236470D+00

 Vector   75  Occ=0.000000D+00  E= 2.292045D+00

 Vector   76  Occ=0.000000D+00  E= 2.300319D+00

 Vector   77  Occ=0.000000D+00  E= 2.332918D+00

 Vector   78  Occ=0.000000D+00  E= 2.333672D+00

 Vector   79  Occ=0.000000D+00  E= 2.355135D+00

 Vector   80  Occ=0.000000D+00  E= 2.456519D+00

 Vector   81  Occ=0.000000D+00  E= 2.530553D+00

 Vector   82  Occ=0.000000D+00  E= 2.564090D+00

 Vector   83  Occ=0.000000D+00  E= 2.716444D+00

 Vector   84  Occ=0.000000D+00  E= 2.807549D+00

 Vector   85  Occ=0.000000D+00  E= 3.046638D+00

 Vector   86  Occ=0.000000D+00  E= 4.610682D+00

 Vector   87  Occ=0.000000D+00  E= 9.037787D+00

 Vector   88  Occ=0.000000D+00  E= 1.156354D+01

 Vector   89  Occ=0.000000D+00  E= 1.167040D+01

 Vector   90  Occ=0.000000D+00  E= 1.175449D+01

 Vector   91  Occ=0.000000D+00  E= 2.190429D+01

 Vector   92  Occ=0.000000D+00  E= 4.075119D+01

 Vector   93  Occ=0.000000D+00  E= 4.076233D+01

 Vector   94  Occ=0.000000D+00  E= 4.076893D+01

 Vector   95  Occ=0.000000D+00  E= 6.249987D+01

 Vector   96  Occ=0.000000D+00  E= 6.261273D+01

 Vector   97  Occ=0.000000D+00  E= 6.270365D+01

 Vector   98  Occ=0.000000D+00  E= 1.178451D+02

 Vector   99  Occ=0.000000D+00  E= 1.230690D+02

 Vector  100  Occ=0.000000D+00  E= 8.996231D+02

     Multipole analysis of the density
     ---------------------------------

     L   x y z        total         alpha         beta         nuclear
     -   - - -        -----         -----         ----         -------
     0   0 0 0     -0.000000    -25.000000    -24.000000     49.000000

     1   1 0 0     -0.246829     -0.713536      0.466708     -0.000000
     1   0 1 0      0.604478     -0.163260      0.767738      0.000000
     1   0 0 1      0.662903     -0.179941      0.842844      0.000000

     2   2 0 0    -30.886290   -155.521075   -151.848437    276.483222
     2   1 1 0     -2.657302    -48.518365    -47.731252     93.592314
     2   1 0 1     -2.918649    -53.373569    -52.507034    102.961953
     2   0 2 0    -27.481090    -78.574218    -75.202376    126.295503
     2   0 1 1      1.571121    -63.059360    -61.958514    126.588995

 Total times  cpu:       38.8s     wall:       40.3s
