 Output coordinates in angstroms (scale by  1.889725989 to convert to a.u.)

  No.       Tag          Charge          X              Y              Z
 ---- ---------------- ---------- -------------- -------------- --------------
    1 C                    6.0000     1.66318888    -1.59036989     0.70311288
    2 H                    1.0000     1.64252999    -2.32009213     1.52717088
    3 H                    1.0000     2.44329495    -0.85108457     0.92785158
    4 H                    1.0000     1.93759252    -2.12740724    -0.21469979
    5 C                    6.0000     0.27763053    -0.94710130     0.60064094
    6 H                    1.0000    -0.49002374    -1.70271068     0.37966349
    7 H                    1.0000     0.00503378    -0.43221703     1.53222774
    8 C                    6.0000     0.30618379     0.15785424    -0.58059386
    9 H                    1.0000     1.04614266     0.92508152    -0.32558856
   10 H                    1.0000     0.58406396    -0.38580146    -1.49596277
   11 C                    6.0000    -1.02103248     0.69099515    -0.69526382
   12 H                    1.0000    -1.83407556     0.13196869    -1.17911899
   13 O                    8.0000    -1.30500911     1.84285676    -0.14202781
   14 H                    1.0000    -2.25030993     2.15113947    -0.18269776

         Total DFT energy =     -232.711508482278

                    DFT Final Alpha Molecular Orbital Analysis
                    ------------------------------------------

 Vector    1  Occ=1.000000D+00  E=-1.878876D+01

 Vector   23  Occ=0.000000D+00  E= 3.391761D-02

 Vector   24  Occ=0.000000D+00  E= 5.943262D-02

 Vector   25  Occ=0.000000D+00  E= 7.093663D-02

 Vector   26  Occ=0.000000D+00  E= 7.746364D-02

 Vector   27  Occ=0.000000D+00  E= 9.921716D-02

 Vector   28  Occ=0.000000D+00  E= 1.082749D-01

 Vector   29  Occ=0.000000D+00  E= 1.127173D-01

 Vector   30  Occ=0.000000D+00  E= 1.327740D-01

 Vector   31  Occ=0.000000D+00  E= 1.417669D-01

 Vector   32  Occ=0.000000D+00  E= 1.595832D-01

 Vector   33  Occ=0.000000D+00  E= 1.848822D-01

 Vector   34  Occ=0.000000D+00  E= 1.874848D-01

 Vector   35  Occ=0.000000D+00  E= 2.247950D-01

 Vector   36  Occ=0.000000D+00  E= 2.446609D-01

 Vector   37  Occ=0.000000D+00  E= 2.560072D-01

 Vector   38  Occ=0.000000D+00  E= 2.625138D-01

 Vector   39  Occ=0.000000D+00  E= 2.733769D-01

 Vector   40  Occ=0.000000D+00  E= 2.906916D-01

 Vector   41  Occ=0.000000D+00  E= 3.150497D-01

 Vector   42  Occ=0.000000D+00  E= 3.272719D-01

 Vector   43  Occ=0.000000D+00  E= 3.525353D-01

 Vector   44  Occ=0.000000D+00  E= 3.689264D-01

 Vector   45  Occ=0.000000D+00  E= 3.916700D-01

 Vector   46  Occ=0.000000D+00  E= 4.013637D-01

 Vector   47  Occ=0.000000D+00  E= 4.271715D-01

 Vector   48  Occ=0.000000D+00  E= 4.353848D-01

 Vector   49  Occ=0.000000D+00  E= 4.425110D-01

 Vector   50  Occ=0.000000D+00  E= 4.621326D-01

 Vector   51  Occ=0.000000D+00  E= 4.630486D-01

 Vector   52  Occ=0.000000D+00  E= 4.771945D-01

 Vector   53  Occ=0.000000D+00  E= 4.898956D-01

 Vector   54  Occ=0.000000D+00  E= 4.947625D-01

 Vector   55  Occ=0.000000D+00  E= 5.029421D-01

 Vector   56  Occ=0.000000D+00  E= 5.153947D-01

 Vector   57  Occ=0.000000D+00  E= 5.708951D-01

 Vector   58  Occ=0.000000D+00  E= 5.873951D-01

 Vector   59  Occ=0.000000D+00  E= 6.570359D-01

 Vector   60  Occ=0.000000D+00  E= 6.998407D-01

 Vector   61  Occ=0.000000D+00  E= 7.213261D-01

 Vector   62  Occ=0.000000D+00  E= 7.847855D-01

 Vector   63  Occ=0.000000D+00  E= 1.130929D+00

 Vector   64  Occ=0.000000D+00  E= 1.348922D+00

 Vector   65  Occ=0.000000D+00  E= 1.378603D+00

 Vector   66  Occ=0.000000D+00  E= 1.420451D+00

 Vector   67  Occ=0.000000D+00  E= 1.447265D+00

 Vector   68  Occ=0.000000D+00  E= 1.464539D+00

 Vector   69  Occ=0.000000D+00  E= 1.482573D+00

 Vector   70  Occ=0.000000D+00  E= 1.526549D+00

 Vector   71  Occ=0.000000D+00  E= 1.562076D+00

 Vector   72  Occ=0.000000D+00  E= 1.582864D+00

 Vector   73  Occ=0.000000D+00  E= 1.609072D+00

 Vector   74  Occ=0.000000D+00  E= 1.735403D+00

 Vector   75  Occ=0.000000D+00  E= 1.791093D+00

 Vector   76  Occ=0.000000D+00  E= 2.033903D+00

 Vector   77  Occ=0.000000D+00  E= 2.116866D+00

 Vector   78  Occ=0.000000D+00  E= 2.171299D+00

 Vector   79  Occ=0.000000D+00  E= 2.239039D+00

 Vector   80  Occ=0.000000D+00  E= 2.246406D+00

 Vector   81  Occ=0.000000D+00  E= 2.301956D+00

 Vector   82  Occ=0.000000D+00  E= 2.335830D+00

 Vector   83  Occ=0.000000D+00  E= 2.342222D+00

 Vector   84  Occ=0.000000D+00  E= 2.457522D+00

 Vector   85  Occ=0.000000D+00  E= 2.507326D+00

 Vector   86  Occ=0.000000D+00  E= 2.588768D+00

 Vector   87  Occ=0.000000D+00  E= 2.640471D+00

 Vector   88  Occ=0.000000D+00  E= 2.701686D+00

 Vector   89  Occ=0.000000D+00  E= 2.716285D+00

 Vector   90  Occ=0.000000D+00  E= 2.883523D+00

 Vector   91  Occ=0.000000D+00  E= 2.972577D+00

 Vector   92  Occ=0.000000D+00  E= 4.629508D+00

 Vector   93  Occ=0.000000D+00  E= 1.160121D+01

 Vector   94  Occ=0.000000D+00  E= 1.169982D+01

 Vector   95  Occ=0.000000D+00  E= 1.172787D+01

 Vector   96  Occ=0.000000D+00  E= 1.180222D+01

 Vector   97  Occ=0.000000D+00  E= 2.191357D+01

 Vector   98  Occ=0.000000D+00  E= 6.254528D+01

 Vector   99  Occ=0.000000D+00  E= 6.264307D+01

 Vector  100  Occ=0.000000D+00  E= 6.267511D+01

 Vector  101  Occ=0.000000D+00  E= 6.275098D+01

 Vector  102  Occ=0.000000D+00  E= 1.178542D+02

     Multipole analysis of the density
     ---------------------------------

     L   x y z        total         alpha         beta         nuclear
     -   - - -        -----         -----         ----         -------
     0   0 0 0     -0.000000    -21.000000    -20.000000     41.000000

     1   1 0 0     -0.636740      0.547972     -1.184711      0.000000
     1   0 1 0     -0.074265     -0.715990      0.641724     -0.000000
     1   0 0 1     -0.096128      0.491315     -0.587443      0.000000

     2   2 0 0    -20.101875   -119.635769   -114.825892    214.359786
     2   1 1 0     -2.455859     97.196495     93.725698   -193.378051
     2   1 0 1      0.632460    -33.201423    -31.277202     65.111085
     2   0 2 0    -25.164743   -140.129868   -135.400373    250.365498
     2   0 1 1      0.280872     38.880468     36.772289    -75.371884

 Total times  cpu:       26.5s     wall:       27.5s
