 Output coordinates in angstroms (scale by  1.889725989 to convert to a.u.)

  No.       Tag          Charge          X              Y              Z
 ---- ---------------- ---------- -------------- -------------- --------------
    1 C                    6.0000    -0.83748131    -0.06761647     0.51770236
    2 C                    6.0000     0.52428173     0.39369765     0.67436314
    3 C                    6.0000     1.47250186     0.25922839    -0.51123250
    4 H                    1.0000     0.90742206    -0.10985024     1.59600964
    5 H                    1.0000     0.44370115     1.44400573     1.04877565
    6 O                    8.0000    -1.21776434    -0.58043851    -0.61720147
    7 H                    1.0000    -1.56957937     0.00185415     1.33522108
    8 H                    1.0000     1.11217629     0.82221898    -1.38239511
    9 H                    1.0000     1.59578389    -0.78936342    -0.81287189
   10 H                    1.0000     2.45820710     0.65200532    -0.23671846
   11 H                    1.0000    -2.16141004    -0.88921996    -0.69540727

         Total DFT energy =     -193.448208245696

                    DFT Final Alpha Molecular Orbital Analysis
                    ------------------------------------------

 Vector    1  Occ=1.000000D+00  E=-1.878648D+01

 Vector    2  Occ=1.000000D+00  E=-9.905155D+00

 Vector    3  Occ=1.000000D+00  E=-9.888650D+00

 Vector    4  Occ=1.000000D+00  E=-9.873614D+00

 Vector    5  Occ=1.000000D+00  E=-9.837059D-01

 Vector    6  Occ=1.000000D+00  E=-7.042607D-01

 Vector    7  Occ=1.000000D+00  E=-6.031726D-01

 Vector    8  Occ=1.000000D+00  E=-5.430676D-01

 Vector    9  Occ=1.000000D+00  E=-4.613462D-01

 Vector   10  Occ=1.000000D+00  E=-3.958303D-01

 Vector   11  Occ=1.000000D+00  E=-3.902432D-01

 Vector   12  Occ=1.000000D+00  E=-3.377120D-01

 Vector   13  Occ=1.000000D+00  E=-3.178972D-01

 Vector   14  Occ=1.000000D+00  E=-3.089348D-01

 Vector   15  Occ=1.000000D+00  E=-2.852516D-01

 Vector   16  Occ=1.000000D+00  E=-2.776695D-01

 Vector   17  Occ=0.000000D+00  E=-2.567342D-02

 Vector   18  Occ=0.000000D+00  E=-7.250017D-03

 Vector   19  Occ=0.000000D+00  E= 4.487908D-02

 Vector   20  Occ=0.000000D+00  E= 6.283435D-02

 Vector   21  Occ=0.000000D+00  E= 8.559546D-02

 Vector   22  Occ=0.000000D+00  E= 9.356707D-02

 Vector   23  Occ=0.000000D+00  E= 1.052391D-01

 Vector   24  Occ=0.000000D+00  E= 1.257291D-01

 Vector   25  Occ=0.000000D+00  E= 1.561593D-01

 Vector   26  Occ=0.000000D+00  E= 1.811051D-01

 Vector   27  Occ=0.000000D+00  E= 1.975277D-01

 Vector   28  Occ=0.000000D+00  E= 2.210298D-01

 Vector   29  Occ=0.000000D+00  E= 2.263790D-01

 Vector   30  Occ=0.000000D+00  E= 2.591797D-01

 Vector   31  Occ=0.000000D+00  E= 2.726399D-01

 Vector   32  Occ=0.000000D+00  E= 3.015216D-01

 Vector   33  Occ=0.000000D+00  E= 3.124705D-01

 Vector   34  Occ=0.000000D+00  E= 3.276193D-01

 Vector   35  Occ=0.000000D+00  E= 3.607815D-01

 Vector   36  Occ=0.000000D+00  E= 4.040864D-01

 Vector   37  Occ=0.000000D+00  E= 4.089807D-01

 Vector   38  Occ=0.000000D+00  E= 4.100351D-01

 Vector   39  Occ=0.000000D+00  E= 4.475567D-01

 Vector   40  Occ=0.000000D+00  E= 4.645874D-01

 Vector   41  Occ=0.000000D+00  E= 4.733073D-01

 Vector   42  Occ=0.000000D+00  E= 4.809358D-01

 Vector   43  Occ=0.000000D+00  E= 4.923934D-01

 Vector   44  Occ=0.000000D+00  E= 4.950798D-01

 Vector   45  Occ=0.000000D+00  E= 5.324538D-01

 Vector   46  Occ=0.000000D+00  E= 5.610742D-01

 Vector   47  Occ=0.000000D+00  E= 6.046811D-01

 Vector   48  Occ=0.000000D+00  E= 7.431837D-01

 Vector   49  Occ=0.000000D+00  E= 8.077630D-01

 Vector   50  Occ=0.000000D+00  E= 1.107469D+00

 Vector   51  Occ=0.000000D+00  E= 1.358544D+00

 Vector   52  Occ=0.000000D+00  E= 1.418864D+00

 Vector   53  Occ=0.000000D+00  E= 1.420525D+00

 Vector   54  Occ=0.000000D+00  E= 1.444981D+00

 Vector   55  Occ=0.000000D+00  E= 1.499469D+00

 Vector   56  Occ=0.000000D+00  E= 1.514657D+00

 Vector   57  Occ=0.000000D+00  E= 1.602010D+00

 Vector   58  Occ=0.000000D+00  E= 1.627259D+00

 Vector   59  Occ=0.000000D+00  E= 1.771672D+00

 Vector   60  Occ=0.000000D+00  E= 2.035147D+00

 Vector   61  Occ=0.000000D+00  E= 2.141288D+00

 Vector   62  Occ=0.000000D+00  E= 2.206303D+00

 Vector   63  Occ=0.000000D+00  E= 2.240228D+00

 Vector   64  Occ=0.000000D+00  E= 2.302536D+00

 Vector   65  Occ=0.000000D+00  E= 2.328741D+00

 Vector   66  Occ=0.000000D+00  E= 2.351768D+00

 Vector   67  Occ=0.000000D+00  E= 2.495701D+00

 Vector   68  Occ=0.000000D+00  E= 2.507409D+00

 Vector   69  Occ=0.000000D+00  E= 2.649711D+00

 Vector   70  Occ=0.000000D+00  E= 2.718999D+00

 Vector   71  Occ=0.000000D+00  E= 2.840568D+00

 Vector   72  Occ=0.000000D+00  E= 2.997006D+00

 Vector   73  Occ=0.000000D+00  E= 4.612592D+00

 Vector   74  Occ=0.000000D+00  E= 1.158438D+01

 Vector   75  Occ=0.000000D+00  E= 1.170072D+01

 Vector   76  Occ=0.000000D+00  E= 1.177603D+01

 Vector   77  Occ=0.000000D+00  E= 2.190180D+01

 Vector   78  Occ=0.000000D+00  E= 6.252584D+01

 Vector   79  Occ=0.000000D+00  E= 6.264708D+01

 Vector   80  Occ=0.000000D+00  E= 6.272461D+01

 Vector   81  Occ=0.000000D+00  E= 1.178417D+02

     Multipole analysis of the density
     ---------------------------------

     L   x y z        total         alpha         beta         nuclear
     -   - - -        -----         -----         ----         -------
     0   0 0 0     -0.000000    -17.000000    -16.000000     33.000000

     1   1 0 0     -0.569674      0.451319     -1.020993      0.000000
     1   0 1 0     -0.098524      0.027448     -0.125972     -0.000000
     1   0 0 1      0.202063     -0.304971      0.507033      0.000000

     2   2 0 0    -15.168579    -96.485303    -92.638570    173.955294
     2   1 1 0      1.745814    -22.966527    -22.571581     47.283922
     2   1 0 1      0.410634      2.219192      2.046663     -3.855220
     2   0 2 0    -19.924627    -26.669578    -24.209288     30.954238
     2   0 1 1      0.272505     -8.401433     -8.340055     17.013993

 Total times  cpu:       22.4s     wall:       23.5s
