 Output coordinates in angstroms (scale by  1.889725989 to convert to a.u.)

  No.       Tag          Charge          X              Y              Z
 ---- ---------------- ---------- -------------- -------------- --------------
    1 C                    6.0000    -0.33576444     0.02707915     0.30267588
    2 C                    6.0000     1.02859642     0.46202853     0.47802541
    3 H                    1.0000     1.45750867    -0.03482087     1.37417700
    4 H                    1.0000     1.03536240     1.53490430     0.76574533
    5 O                    8.0000    -0.69697506    -0.50731733    -0.82483868
    6 H                    1.0000    -1.08722284     0.13370915     1.09887294
    7 H                    1.0000     1.65797168     0.29097802    -0.39990419
    8 H                    1.0000    -1.64481135    -0.80087813    -0.92438929

         Total DFT energy =     -154.189404682155

                    DFT Final Alpha Molecular Orbital Analysis
                    ------------------------------------------

 Vector    1  Occ=1.000000D+00  E=-1.878792D+01

 Vector   41  Occ=0.000000D+00  E= 1.487814D+00

 Vector   42  Occ=0.000000D+00  E= 1.566761D+00

 Vector   43  Occ=0.000000D+00  E= 1.625447D+00

 Vector   44  Occ=0.000000D+00  E= 2.028573D+00

 Vector   45  Occ=0.000000D+00  E= 2.091636D+00

 Vector   46  Occ=0.000000D+00  E= 2.202663D+00

 Vector   47  Occ=0.000000D+00  E= 2.290779D+00

 Vector   48  Occ=0.000000D+00  E= 2.301039D+00

 Vector   49  Occ=0.000000D+00  E= 2.421360D+00

 Vector   50  Occ=0.000000D+00  E= 2.477149D+00

 Vector   51  Occ=0.000000D+00  E= 2.616730D+00

 Vector   52  Occ=0.000000D+00  E= 2.769769D+00

 Vector   53  Occ=0.000000D+00  E= 2.947724D+00

 Vector   54  Occ=0.000000D+00  E= 4.561641D+00

 Vector   55  Occ=0.000000D+00  E= 1.152798D+01

 Vector   56  Occ=0.000000D+00  E= 1.173330D+01

 Vector   57  Occ=0.000000D+00  E= 2.185900D+01

 Vector   58  Occ=0.000000D+00  E= 6.247696D+01

 Vector   59  Occ=0.000000D+00  E= 6.268469D+01

 Vector   60  Occ=0.000000D+00  E= 1.178034D+02

 Vector    1  Occ=1.000000D+00  E=-1.878271D+01

 Vector    2  Occ=1.000000D+00  E=-9.908583D+00

 Vector    3  Occ=1.000000D+00  E=-9.880370D+00

 Vector    4  Occ=1.000000D+00  E=-9.858280D-01

 Vector    5  Occ=1.000000D+00  E=-6.774127D-01

 Vector    6  Occ=1.000000D+00  E=-5.568384D-01

 Vector    7  Occ=1.000000D+00  E=-4.762264D-01

 Vector    8  Occ=1.000000D+00  E=-3.788259D-01

 Vector    9  Occ=1.000000D+00  E=-3.624422D-01

 Vector   10  Occ=1.000000D+00  E=-3.469617D-01

 Vector   11  Occ=1.000000D+00  E=-2.998725D-01

 Vector   12  Occ=1.000000D+00  E=-2.807565D-01

 Vector   13  Occ=0.000000D+00  E=-2.840600D-02

 Vector   14  Occ=0.000000D+00  E=-5.934305D-03

 Vector   15  Occ=0.000000D+00  E= 5.217688D-02

 Vector   16  Occ=0.000000D+00  E= 7.788515D-02

 Vector   17  Occ=0.000000D+00  E= 1.007131D-01

 Vector   18  Occ=0.000000D+00  E= 1.065182D-01

 Vector   19  Occ=0.000000D+00  E= 1.525068D-01

 Vector   20  Occ=0.000000D+00  E= 1.901567D-01

 Vector   21  Occ=0.000000D+00  E= 2.205861D-01

 Vector   22  Occ=0.000000D+00  E= 2.563136D-01

 Vector   23  Occ=0.000000D+00  E= 2.566857D-01

 Vector   24  Occ=0.000000D+00  E= 2.674884D-01

 Vector   25  Occ=0.000000D+00  E= 3.177023D-01

 Vector   26  Occ=0.000000D+00  E= 3.333119D-01

 Vector   27  Occ=0.000000D+00  E= 3.831982D-01

 Vector   28  Occ=0.000000D+00  E= 4.267686D-01

 Vector   29  Occ=0.000000D+00  E= 4.446984D-01

 Vector   30  Occ=0.000000D+00  E= 4.702825D-01

 Vector   31  Occ=0.000000D+00  E= 4.829318D-01

 Vector   32  Occ=0.000000D+00  E= 4.881533D-01

 Vector   33  Occ=0.000000D+00  E= 5.053734D-01

 Vector   34  Occ=0.000000D+00  E= 5.368740D-01

 Vector   35  Occ=0.000000D+00  E= 6.274934D-01

 Vector   36  Occ=0.000000D+00  E= 6.974059D-01

 Vector   37  Occ=0.000000D+00  E= 1.061477D+00

 Vector   38  Occ=0.000000D+00  E= 1.348334D+00

 Vector   39  Occ=0.000000D+00  E= 1.403519D+00

 Vector   40  Occ=0.000000D+00  E= 1.418698D+00

 Vector   41  Occ=0.000000D+00  E= 1.497128D+00

 Vector   42  Occ=0.000000D+00  E= 1.575615D+00

 Vector   43  Occ=0.000000D+00  E= 1.632121D+00

 Vector   44  Occ=0.000000D+00  E= 2.028817D+00

 Vector   45  Occ=0.000000D+00  E= 2.101395D+00

 Vector   46  Occ=0.000000D+00  E= 2.205818D+00

 Vector   47  Occ=0.000000D+00  E= 2.302454D+00

 Vector   48  Occ=0.000000D+00  E= 2.304754D+00

 Vector   49  Occ=0.000000D+00  E= 2.447511D+00

 Vector   50  Occ=0.000000D+00  E= 2.499164D+00

 Vector   51  Occ=0.000000D+00  E= 2.621763D+00

 Vector   52  Occ=0.000000D+00  E= 2.776448D+00

 Vector   53  Occ=0.000000D+00  E= 2.952887D+00

 Vector   54  Occ=0.000000D+00  E= 4.573625D+00

 Vector   55  Occ=0.000000D+00  E= 1.154581D+01

 Vector   56  Occ=0.000000D+00  E= 1.173840D+01

 Vector   57  Occ=0.000000D+00  E= 2.186963D+01

 Vector   58  Occ=0.000000D+00  E= 6.248696D+01

 Vector   59  Occ=0.000000D+00  E= 6.268732D+01

 Vector   60  Occ=0.000000D+00  E= 1.178095D+02

     Multipole analysis of the density
     ---------------------------------

     L   x y z        total         alpha         beta         nuclear
     -   - - -        -----         -----         ----         -------
     0   0 0 0     -0.000000    -13.000000    -12.000000     25.000000

     1   1 0 0     -0.584451     -0.028105     -0.556345     -0.000000
     1   0 1 0     -0.072664     -0.041577     -0.031087      0.000000
     1   0 0 1      0.218089     -0.087687      0.305776     -0.000000

     2   2 0 0    -11.184482    -43.602866    -41.657341     74.075725
     2   1 1 0      1.544659    -15.071721    -14.874614     31.490994
     2   1 0 1      0.869467    -16.725375    -15.965791     33.560633
     2   0 2 0    -15.094249    -20.261322    -17.849453     23.016526
     2   0 1 1      0.421620    -11.677184    -11.542964     23.641767

 Total times  cpu:        3.3s     wall:        3.7s
