 Output coordinates in angstroms (scale by  1.889725989 to convert to a.u.)

  No.       Tag          Charge          X              Y              Z
 ---- ---------------- ---------- -------------- -------------- --------------
    1 C                    6.0000     0.71660205    -0.58009068    -0.59776624
    2 C                    6.0000     1.86489511     0.33383747    -0.63267930
    3 H                    1.0000     2.64666937    -0.04725526     0.05598677
    4 H                    1.0000     1.59239555     1.33370245    -0.27712357
    5 O                    8.0000     0.66562999    -1.69865649    -1.28349537
    6 H                    1.0000     2.31750676     0.40021620    -1.63324740
    7 C                    6.0000    -0.50592963    -0.36905015     0.23147765
    8 Cl                  17.0000    -1.37446545     0.95610579    -0.76515152
    9 Cl                  17.0000    -0.07254942     0.14545552     1.92705226
   10 H                    1.0000    -1.15845905    -1.24181695     0.26601819
   11 H                    1.0000     1.42269521    -1.89031672    -1.90217632

         Total DFT energy =    -1112.303058982925

                    DFT Final Alpha Molecular Orbital Analysis
                    ------------------------------------------

 Vector    1  Occ=1.000000D+00  E=-1.006826D+02

 Vector   40  Occ=0.000000D+00  E= 9.246283D-02

 Vector   41  Occ=0.000000D+00  E= 1.261668D-01

 Vector   42  Occ=0.000000D+00  E= 1.448265D-01

 Vector   43  Occ=0.000000D+00  E= 1.638236D-01

 Vector   44  Occ=0.000000D+00  E= 1.829417D-01

 Vector   45  Occ=0.000000D+00  E= 2.158474D-01

 Vector   46  Occ=0.000000D+00  E= 2.277447D-01

 Vector   47  Occ=0.000000D+00  E= 2.538757D-01

 Vector   48  Occ=0.000000D+00  E= 2.706396D-01

 Vector   49  Occ=0.000000D+00  E= 2.930069D-01

 Vector   50  Occ=0.000000D+00  E= 2.962279D-01

 Vector   51  Occ=0.000000D+00  E= 3.218244D-01

 Vector   52  Occ=0.000000D+00  E= 3.336666D-01

 Vector   53  Occ=0.000000D+00  E= 3.389548D-01

 Vector   54  Occ=0.000000D+00  E= 3.519609D-01

 Vector   55  Occ=0.000000D+00  E= 3.637639D-01

 Vector   56  Occ=0.000000D+00  E= 3.880734D-01

 Vector   57  Occ=0.000000D+00  E= 4.028455D-01

 Vector   58  Occ=0.000000D+00  E= 4.199233D-01

 Vector   59  Occ=0.000000D+00  E= 4.249030D-01

 Vector   60  Occ=0.000000D+00  E= 4.288350D-01

 Vector   61  Occ=0.000000D+00  E= 4.452243D-01

 Vector   62  Occ=0.000000D+00  E= 4.498636D-01

 Vector   63  Occ=0.000000D+00  E= 4.837279D-01

 Vector   64  Occ=0.000000D+00  E= 4.905254D-01

 Vector   65  Occ=0.000000D+00  E= 5.075413D-01

 Vector   66  Occ=0.000000D+00  E= 5.166781D-01

 Vector   67  Occ=0.000000D+00  E= 5.981133D-01

 Vector   68  Occ=0.000000D+00  E= 6.813481D-01

 Vector   69  Occ=0.000000D+00  E= 7.181593D-01

 Vector   70  Occ=0.000000D+00  E= 9.086088D-01

 Vector   71  Occ=0.000000D+00  E= 9.687849D-01

 Vector   72  Occ=0.000000D+00  E= 1.104159D+00

 Vector   73  Occ=0.000000D+00  E= 1.317618D+00

 Vector   74  Occ=0.000000D+00  E= 1.348725D+00

 Vector   75  Occ=0.000000D+00  E= 1.377536D+00

 Vector   76  Occ=0.000000D+00  E= 1.438743D+00

 Vector   77  Occ=0.000000D+00  E= 1.475057D+00

 Vector   78  Occ=0.000000D+00  E= 1.494584D+00

 Vector   79  Occ=0.000000D+00  E= 1.515581D+00

 Vector   80  Occ=0.000000D+00  E= 1.644860D+00

 Vector   81  Occ=0.000000D+00  E= 1.696086D+00

 Vector   82  Occ=0.000000D+00  E= 2.015027D+00

 Vector   83  Occ=0.000000D+00  E= 2.092974D+00

 Vector   84  Occ=0.000000D+00  E= 2.161566D+00

 Vector   85  Occ=0.000000D+00  E= 2.230931D+00

 Vector   86  Occ=0.000000D+00  E= 2.263008D+00

 Vector   87  Occ=0.000000D+00  E= 2.276161D+00

 Vector   88  Occ=0.000000D+00  E= 2.293644D+00

 Vector   89  Occ=0.000000D+00  E= 2.307315D+00

 Vector   90  Occ=0.000000D+00  E= 2.316910D+00

 Vector   91  Occ=0.000000D+00  E= 2.328961D+00

 Vector   92  Occ=0.000000D+00  E= 2.388840D+00

 Vector   93  Occ=0.000000D+00  E= 2.495476D+00

 Vector   94  Occ=0.000000D+00  E= 2.511635D+00

 Vector   95  Occ=0.000000D+00  E= 2.565681D+00

 Vector   96  Occ=0.000000D+00  E= 2.646626D+00

 Vector   97  Occ=0.000000D+00  E= 2.743538D+00

 Vector   98  Occ=0.000000D+00  E= 2.997132D+00

 Vector   99  Occ=0.000000D+00  E= 4.594288D+00

 Vector  100  Occ=0.000000D+00  E= 9.010088D+00

 Vector  101  Occ=0.000000D+00  E= 9.037312D+00

 Vector  102  Occ=0.000000D+00  E= 1.155817D+01

 Vector  103  Occ=0.000000D+00  E= 1.165194D+01

 Vector  104  Occ=0.000000D+00  E= 1.170796D+01

 Vector  105  Occ=0.000000D+00  E= 2.188622D+01

 Vector  106  Occ=0.000000D+00  E= 4.073864D+01

 Vector  107  Occ=0.000000D+00  E= 4.074727D+01

 Vector  108  Occ=0.000000D+00  E= 4.075108D+01

 Vector  109  Occ=0.000000D+00  E= 4.076457D+01

 Vector  110  Occ=0.000000D+00  E= 4.076874D+01

 Vector  111  Occ=0.000000D+00  E= 4.079147D+01

 Vector  112  Occ=0.000000D+00  E= 6.248469D+01

 Vector  113  Occ=0.000000D+00  E= 6.259062D+01

 Vector  114  Occ=0.000000D+00  E= 6.265647D+01

 Vector  115  Occ=0.000000D+00  E= 1.178263D+02

 Vector  116  Occ=0.000000D+00  E= 1.230394D+02

 Vector  117  Occ=0.000000D+00  E= 1.230783D+02

 Vector  118  Occ=0.000000D+00  E= 8.995900D+02

 Vector  119  Occ=0.000000D+00  E= 8.996331D+02

     Multipole analysis of the density
     ---------------------------------

     L   x y z        total         alpha         beta         nuclear
     -   - - -        -----         -----         ----         -------
     0   0 0 0     -0.000000    -33.000000    -32.000000     65.000000

     1   1 0 0      1.197091      0.110556      1.086535      0.000000
     1   0 1 0     -0.642145      0.139197     -0.781342      0.000000
     1   0 0 1     -0.669830      0.224123     -0.893953     -0.000000

     2   2 0 0    -34.861298   -161.763832   -157.036486    283.939021
     2   1 1 0     -0.280445     50.212374     47.811730    -98.304549
     2   1 0 1     -3.929312     14.070749     13.345270    -31.345332
     2   0 2 0    -37.556097   -109.219993   -105.264395    176.928292
     2   0 1 1      1.567667    -21.870294    -20.523341     43.961301

 Total times  cpu:        5.7s     wall:        6.2s
