 Output coordinates in angstroms (scale by  1.889725989 to convert to a.u.)

  No.       Tag          Charge          X              Y              Z
 ---- ---------------- ---------- -------------- -------------- --------------
    1 C                    6.0000    -1.14347450     0.49906817     0.94902169
    2 C                    6.0000     0.02912880     0.06129181     0.13478693
    3 C                    6.0000     1.35978801    -0.07852520     0.75767517
    4 O                    8.0000    -0.08938703    -0.20066945    -1.12777733
    5 Cl                  17.0000    -2.64264148     0.76118068    -0.10941136
    6 H                    1.0000    -0.92905273     1.43480338     1.48402615
    7 H                    1.0000    -1.39350414    -0.27496750     1.69167939
    8 Cl                  17.0000     2.61793278    -0.92226792    -0.26862766
    9 H                    1.0000     1.27651558    -0.60046447     1.72335449
   10 H                    1.0000     1.73871347     0.93725603     0.98112606
   11 H                    1.0000    -1.03018208    -0.04379731    -1.48020675

         Total DFT energy =    -1112.291319359344

                    DFT Final Alpha Molecular Orbital Analysis
                    ------------------------------------------

 Vector    1  Occ=1.000000D+00  E=-1.007029D+02

 Vector   40  Occ=0.000000D+00  E= 8.566649D-02

 Vector   41  Occ=0.000000D+00  E= 1.246071D-01

 Vector   42  Occ=0.000000D+00  E= 1.600782D-01

 Vector   43  Occ=0.000000D+00  E= 1.675940D-01

 Vector   44  Occ=0.000000D+00  E= 1.992631D-01

 Vector   45  Occ=0.000000D+00  E= 2.275868D-01

 Vector   46  Occ=0.000000D+00  E= 2.312022D-01

 Vector   47  Occ=0.000000D+00  E= 2.473888D-01

 Vector   48  Occ=0.000000D+00  E= 2.663618D-01

 Vector   49  Occ=0.000000D+00  E= 2.942825D-01

 Vector   50  Occ=0.000000D+00  E= 2.956646D-01

 Vector   51  Occ=0.000000D+00  E= 3.196808D-01

 Vector   52  Occ=0.000000D+00  E= 3.442528D-01

 Vector   53  Occ=0.000000D+00  E= 3.462133D-01

 Vector   54  Occ=0.000000D+00  E= 3.567802D-01

 Vector   55  Occ=0.000000D+00  E= 3.631403D-01

 Vector   56  Occ=0.000000D+00  E= 3.706955D-01

 Vector   57  Occ=0.000000D+00  E= 3.885572D-01

 Vector   58  Occ=0.000000D+00  E= 3.921573D-01

 Vector   59  Occ=0.000000D+00  E= 4.038228D-01

 Vector   60  Occ=0.000000D+00  E= 4.051521D-01

 Vector   61  Occ=0.000000D+00  E= 4.331209D-01

 Vector   62  Occ=0.000000D+00  E= 4.521995D-01

 Vector   63  Occ=0.000000D+00  E= 4.666128D-01

 Vector   64  Occ=0.000000D+00  E= 4.929282D-01

 Vector   65  Occ=0.000000D+00  E= 5.133629D-01

 Vector   66  Occ=0.000000D+00  E= 5.463571D-01

 Vector   67  Occ=0.000000D+00  E= 5.927557D-01

 Vector   68  Occ=0.000000D+00  E= 6.688350D-01

 Vector   69  Occ=0.000000D+00  E= 7.666567D-01

 Vector   70  Occ=0.000000D+00  E= 9.244176D-01

 Vector   71  Occ=0.000000D+00  E= 9.616328D-01

 Vector   72  Occ=0.000000D+00  E= 1.115431D+00

 Vector   73  Occ=0.000000D+00  E= 1.275468D+00

 Vector   74  Occ=0.000000D+00  E= 1.361899D+00

 Vector   75  Occ=0.000000D+00  E= 1.374424D+00

 Vector   76  Occ=0.000000D+00  E= 1.387369D+00

 Vector   77  Occ=0.000000D+00  E= 1.425060D+00

 Vector   78  Occ=0.000000D+00  E= 1.447818D+00

 Vector   79  Occ=0.000000D+00  E= 1.526487D+00

 Vector   80  Occ=0.000000D+00  E= 1.614562D+00

 Vector   81  Occ=0.000000D+00  E= 1.731623D+00

 Vector   82  Occ=0.000000D+00  E= 2.003710D+00

 Vector   83  Occ=0.000000D+00  E= 2.085832D+00

 Vector   84  Occ=0.000000D+00  E= 2.154073D+00

 Vector   85  Occ=0.000000D+00  E= 2.213900D+00

 Vector   86  Occ=0.000000D+00  E= 2.242449D+00

 Vector   87  Occ=0.000000D+00  E= 2.291324D+00

 Vector   88  Occ=0.000000D+00  E= 2.307013D+00

 Vector   89  Occ=0.000000D+00  E= 2.313042D+00

 Vector   90  Occ=0.000000D+00  E= 2.316909D+00

 Vector   91  Occ=0.000000D+00  E= 2.338840D+00

 Vector   92  Occ=0.000000D+00  E= 2.348333D+00

 Vector   93  Occ=0.000000D+00  E= 2.460509D+00

 Vector   94  Occ=0.000000D+00  E= 2.533520D+00

 Vector   95  Occ=0.000000D+00  E= 2.614670D+00

 Vector   96  Occ=0.000000D+00  E= 2.702928D+00

 Vector   97  Occ=0.000000D+00  E= 2.768022D+00

 Vector   98  Occ=0.000000D+00  E= 2.978160D+00

 Vector   99  Occ=0.000000D+00  E= 4.619100D+00

 Vector  100  Occ=0.000000D+00  E= 8.980873D+00

 Vector  101  Occ=0.000000D+00  E= 9.027801D+00

 Vector  102  Occ=0.000000D+00  E= 1.153790D+01

 Vector  103  Occ=0.000000D+00  E= 1.165794D+01

 Vector  104  Occ=0.000000D+00  E= 1.170558D+01

 Vector  105  Occ=0.000000D+00  E= 2.191517D+01

 Vector  106  Occ=0.000000D+00  E= 4.071984D+01

 Vector  107  Occ=0.000000D+00  E= 4.073287D+01

 Vector  108  Occ=0.000000D+00  E= 4.074064D+01

 Vector  109  Occ=0.000000D+00  E= 4.075578D+01

 Vector  110  Occ=0.000000D+00  E= 4.076291D+01

 Vector  111  Occ=0.000000D+00  E= 4.077332D+01

 Vector  112  Occ=0.000000D+00  E= 6.247014D+01

 Vector  113  Occ=0.000000D+00  E= 6.259627D+01

 Vector  114  Occ=0.000000D+00  E= 6.265206D+01

 Vector  115  Occ=0.000000D+00  E= 1.178554D+02

 Vector  116  Occ=0.000000D+00  E= 1.230154D+02

 Vector  117  Occ=0.000000D+00  E= 1.230605D+02

 Vector  118  Occ=0.000000D+00  E= 8.995658D+02

 Vector  119  Occ=0.000000D+00  E= 8.996129D+02

     Multipole analysis of the density
     ---------------------------------

     L   x y z        total         alpha         beta         nuclear
     -   - - -        -----         -----         ----         -------
     0   0 0 0     -0.000000    -33.000000    -32.000000     65.000000

     1   1 0 0     -0.642128     -0.371895     -0.270233      0.000000
     1   0 1 0      0.440050      0.161765      0.278285     -0.000000
     1   0 0 1      0.893932      0.335429      0.558503      0.000000

     2   2 0 0    -42.540110   -491.379619   -489.487573    938.327082
     2   1 1 0      2.369258    142.390132    142.784068   -282.804942
     2   1 0 1      2.305948      9.804938      9.802008    -17.300998
     2   0 2 0    -38.157288    -72.963906    -70.757079    105.563698
     2   0 1 1      0.043306    -15.766110    -15.453270     31.262686

 Total times  cpu:        6.1s     wall:        6.6s
