 Output coordinates in angstroms (scale by  1.889725989 to convert to a.u.)

  No.       Tag          Charge          X              Y              Z
 ---- ---------------- ---------- -------------- -------------- --------------
    1 C                    6.0000    -2.44154300     0.89099523    -0.22343108
    2 C                    6.0000    -1.28251486     0.21105691    -0.96689396
    3 H                    1.0000    -2.60533723     0.43851757     0.76339724
    4 H                    1.0000    -3.36527459     0.77098648    -0.80321725
    5 H                    1.0000    -2.26658883     1.96817014    -0.09131876
    6 C                    6.0000     0.04875152     0.38936861    -0.27573296
    7 H                    1.0000    -1.16799818     0.66462487    -1.97056978
    8 H                    1.0000    -1.48808004    -0.85931869    -1.12242782
    9 C                    6.0000     1.17664902    -0.45232596    -0.71435463
   10 O                    8.0000     2.42794735    -0.08671523    -0.80302970
   11 H                    1.0000     1.01173518    -1.48224511    -1.03717091
   12 Cl                  17.0000     0.14600546    -0.54814003     1.43260361
   13 H                    1.0000     0.30565485     1.42966359    -0.04126591
   14 H                    1.0000     2.66216094     0.84713501    -0.54497489

         Total DFT energy =     -692.131865862862

                    DFT Final Alpha Molecular Orbital Analysis
                    ------------------------------------------

 Vector    1  Occ=1.000000D+00  E=-1.006372D+02

 Vector   42  Occ=0.000000D+00  E= 1.779625D-01

 Vector   43  Occ=0.000000D+00  E= 2.009077D-01

 Vector   44  Occ=0.000000D+00  E= 2.114205D-01

 Vector   45  Occ=0.000000D+00  E= 2.282205D-01

 Vector   46  Occ=0.000000D+00  E= 2.616826D-01

 Vector   47  Occ=0.000000D+00  E= 2.721336D-01

 Vector   48  Occ=0.000000D+00  E= 2.881971D-01

 Vector   49  Occ=0.000000D+00  E= 3.011215D-01

 Vector   50  Occ=0.000000D+00  E= 3.141791D-01

 Vector   51  Occ=0.000000D+00  E= 3.198407D-01

 Vector   52  Occ=0.000000D+00  E= 3.376691D-01

 Vector   53  Occ=0.000000D+00  E= 3.664871D-01

 Vector   54  Occ=0.000000D+00  E= 3.784592D-01

 Vector   55  Occ=0.000000D+00  E= 3.903151D-01

 Vector   56  Occ=0.000000D+00  E= 3.955709D-01

 Vector   57  Occ=0.000000D+00  E= 4.035876D-01

 Vector   58  Occ=0.000000D+00  E= 4.245201D-01

 Vector   59  Occ=0.000000D+00  E= 4.295573D-01

 Vector   60  Occ=0.000000D+00  E= 4.404039D-01

 Vector   61  Occ=0.000000D+00  E= 4.581303D-01

 Vector   62  Occ=0.000000D+00  E= 4.628716D-01

 Vector   63  Occ=0.000000D+00  E= 4.770651D-01

 Vector   64  Occ=0.000000D+00  E= 4.868296D-01

 Vector   65  Occ=0.000000D+00  E= 4.997282D-01

 Vector   66  Occ=0.000000D+00  E= 5.131274D-01

 Vector   67  Occ=0.000000D+00  E= 5.216871D-01

 Vector   68  Occ=0.000000D+00  E= 5.692805D-01

 Vector   69  Occ=0.000000D+00  E= 6.211608D-01

 Vector   70  Occ=0.000000D+00  E= 6.998537D-01

 Vector   71  Occ=0.000000D+00  E= 7.092630D-01

 Vector   72  Occ=0.000000D+00  E= 7.172852D-01

 Vector   73  Occ=0.000000D+00  E= 9.408247D-01

 Vector   74  Occ=0.000000D+00  E= 1.164707D+00

 Vector   75  Occ=0.000000D+00  E= 1.317305D+00

 Vector   76  Occ=0.000000D+00  E= 1.355686D+00

 Vector   77  Occ=0.000000D+00  E= 1.391553D+00

 Vector   78  Occ=0.000000D+00  E= 1.407228D+00

 Vector   79  Occ=0.000000D+00  E= 1.428751D+00

 Vector   80  Occ=0.000000D+00  E= 1.460190D+00

 Vector   81  Occ=0.000000D+00  E= 1.490610D+00

 Vector   82  Occ=0.000000D+00  E= 1.554887D+00

 Vector   83  Occ=0.000000D+00  E= 1.581047D+00

 Vector   84  Occ=0.000000D+00  E= 1.600337D+00

 Vector   85  Occ=0.000000D+00  E= 1.691095D+00

 Vector   86  Occ=0.000000D+00  E= 1.811435D+00

 Vector   87  Occ=0.000000D+00  E= 2.017104D+00

 Vector   88  Occ=0.000000D+00  E= 2.099477D+00

 Vector   89  Occ=0.000000D+00  E= 2.174457D+00

 Vector   90  Occ=0.000000D+00  E= 2.204402D+00

 Vector   91  Occ=0.000000D+00  E= 2.251514D+00

 Vector   92  Occ=0.000000D+00  E= 2.286372D+00

 Vector   93  Occ=0.000000D+00  E= 2.314089D+00

 Vector   94  Occ=0.000000D+00  E= 2.321803D+00

 Vector   95  Occ=0.000000D+00  E= 2.335046D+00

 Vector   96  Occ=0.000000D+00  E= 2.377100D+00

 Vector   97  Occ=0.000000D+00  E= 2.438293D+00

 Vector   98  Occ=0.000000D+00  E= 2.500687D+00

 Vector   99  Occ=0.000000D+00  E= 2.543712D+00

 Vector  100  Occ=0.000000D+00  E= 2.555707D+00

 Vector  101  Occ=0.000000D+00  E= 2.687783D+00

 Vector  102  Occ=0.000000D+00  E= 2.699742D+00

 Vector  103  Occ=0.000000D+00  E= 2.802008D+00

 Vector  104  Occ=0.000000D+00  E= 2.968456D+00

 Vector  105  Occ=0.000000D+00  E= 4.621205D+00

 Vector  106  Occ=0.000000D+00  E= 9.039045D+00

 Vector  107  Occ=0.000000D+00  E= 1.158550D+01

 Vector  108  Occ=0.000000D+00  E= 1.168723D+01

 Vector  109  Occ=0.000000D+00  E= 1.169340D+01

 Vector  110  Occ=0.000000D+00  E= 1.172622D+01

 Vector  111  Occ=0.000000D+00  E= 2.190644D+01

 Vector  112  Occ=0.000000D+00  E= 4.078890D+01

 Vector  113  Occ=0.000000D+00  E= 4.080277D+01

 Vector  114  Occ=0.000000D+00  E= 4.080934D+01

 Vector  115  Occ=0.000000D+00  E= 6.252317D+01

 Vector  116  Occ=0.000000D+00  E= 6.262997D+01

 Vector  117  Occ=0.000000D+00  E= 6.263480D+01

 Vector  118  Occ=0.000000D+00  E= 6.267788D+01

 Vector  119  Occ=0.000000D+00  E= 1.178464D+02

 Vector  120  Occ=0.000000D+00  E= 1.230788D+02

 Vector  121  Occ=0.000000D+00  E= 8.996288D+02

     Multipole analysis of the density
     ---------------------------------

     L   x y z        total         alpha         beta         nuclear
     -   - - -        -----         -----         ----         -------
     0   0 0 0     -0.000000    -29.000000    -28.000000     57.000000

     1   1 0 0     -0.145634     -1.010619      0.864986      0.000000
     1   0 1 0      0.970286      0.839476      0.130811      0.000000
     1   0 0 1     -0.851623     -0.214043     -0.637580      0.000000

     2   2 0 0    -32.915352   -263.483575   -256.924833    487.493056
     2   1 1 0      3.426682     51.046541     49.884289    -97.504149
     2   1 0 1      1.450789      9.324708      6.667826    -14.541744
     2   0 2 0    -31.282558    -57.622221    -56.276451     82.616114
     2   0 1 1      0.426288     24.917032     24.466798    -48.957542

 Total times  cpu:        7.0s     wall:        7.5s
