 Output coordinates in angstroms (scale by  1.889725989 to convert to a.u.)

  No.       Tag          Charge          X              Y              Z
 ---- ---------------- ---------- -------------- -------------- --------------
    1 C                    6.0000     0.47946527     0.07726535     0.88294437
    2 C                    6.0000     1.30695751    -0.39000369    -0.23179355
    3 O                    8.0000     0.87890589    -0.55339524    -1.43353836
    4 H                    1.0000     2.36594219    -0.63215313    -0.09628017
    5 Cl                  17.0000    -1.25933833     0.40827247     0.36531667
    6 H                    1.0000     0.91523325     0.99842931     1.31226376
    7 H                    1.0000     0.48317776    -0.67536312     1.69308480
    8 H                    1.0000    -0.10538533    -0.32795308    -1.55804969

         Total DFT energy =     -613.608539507212

                    DFT Final Alpha Molecular Orbital Analysis
                    ------------------------------------------

 Vector    1  Occ=1.000000D+00  E=-1.006928D+02

 Vector   79  Occ=0.000000D+00  E= 8.995548D+02

 Vector    1  Occ=1.000000D+00  E=-1.006928D+02

 Vector    2  Occ=1.000000D+00  E=-1.879398D+01

 Vector    3  Occ=1.000000D+00  E=-9.975212D+00

 Vector    4  Occ=1.000000D+00  E=-9.928892D+00

 Vector    5  Occ=1.000000D+00  E=-9.197898D+00

 Vector    6  Occ=1.000000D+00  E=-7.024612D+00

 Vector    7  Occ=1.000000D+00  E=-7.012131D+00

 Vector    8  Occ=1.000000D+00  E=-7.010840D+00

 Vector    9  Occ=1.000000D+00  E=-1.003775D+00

 Vector   10  Occ=1.000000D+00  E=-8.026422D-01

 Vector   11  Occ=1.000000D+00  E=-6.723916D-01

 Vector   12  Occ=1.000000D+00  E=-5.793178D-01

 Vector   13  Occ=1.000000D+00  E=-4.672596D-01

 Vector   14  Occ=1.000000D+00  E=-4.432817D-01

 Vector   15  Occ=1.000000D+00  E=-4.236620D-01

 Vector   16  Occ=1.000000D+00  E=-3.761199D-01

 Vector   17  Occ=1.000000D+00  E=-3.227588D-01

 Vector   18  Occ=1.000000D+00  E=-3.034561D-01

 Vector   19  Occ=1.000000D+00  E=-2.924561D-01

 Vector   20  Occ=1.000000D+00  E=-2.806991D-01

 Vector   21  Occ=0.000000D+00  E=-4.688815D-02

 Vector   22  Occ=0.000000D+00  E=-4.577004D-02

 Vector   23  Occ=0.000000D+00  E= 1.358056D-02

 Vector   24  Occ=0.000000D+00  E= 3.016554D-02

 Vector   25  Occ=0.000000D+00  E= 7.243706D-02

 Vector   26  Occ=0.000000D+00  E= 8.069517D-02

 Vector   27  Occ=0.000000D+00  E= 1.460813D-01

 Vector   28  Occ=0.000000D+00  E= 1.731029D-01

 Vector   29  Occ=0.000000D+00  E= 1.963385D-01

 Vector   30  Occ=0.000000D+00  E= 2.346142D-01

 Vector   31  Occ=0.000000D+00  E= 2.567969D-01

 Vector   32  Occ=0.000000D+00  E= 2.640718D-01

 Vector   33  Occ=0.000000D+00  E= 2.919592D-01

 Vector   34  Occ=0.000000D+00  E= 3.179489D-01

 Vector   35  Occ=0.000000D+00  E= 3.420333D-01

 Vector   36  Occ=0.000000D+00  E= 3.693206D-01

 Vector   37  Occ=0.000000D+00  E= 3.737646D-01

 Vector   38  Occ=0.000000D+00  E= 3.791685D-01

 Vector   39  Occ=0.000000D+00  E= 3.922703D-01

 Vector   40  Occ=0.000000D+00  E= 4.527297D-01

 Vector   41  Occ=0.000000D+00  E= 4.753268D-01

 Vector   42  Occ=0.000000D+00  E= 4.837533D-01

 Vector   43  Occ=0.000000D+00  E= 4.913661D-01

 Vector   44  Occ=0.000000D+00  E= 5.267950D-01

 Vector   45  Occ=0.000000D+00  E= 6.055200D-01

 Vector   46  Occ=0.000000D+00  E= 6.922787D-01

 Vector   47  Occ=0.000000D+00  E= 9.064605D-01

 Vector   48  Occ=0.000000D+00  E= 1.080997D+00

 Vector   49  Occ=0.000000D+00  E= 1.310888D+00

 Vector   50  Occ=0.000000D+00  E= 1.355542D+00

 Vector   51  Occ=0.000000D+00  E= 1.383904D+00

 Vector   52  Occ=0.000000D+00  E= 1.461729D+00

 Vector   53  Occ=0.000000D+00  E= 1.520297D+00

 Vector   54  Occ=0.000000D+00  E= 1.598454D+00

 Vector   55  Occ=0.000000D+00  E= 2.014081D+00

 Vector   56  Occ=0.000000D+00  E= 2.087066D+00

 Vector   57  Occ=0.000000D+00  E= 2.204694D+00

 Vector   58  Occ=0.000000D+00  E= 2.226849D+00

 Vector   59  Occ=0.000000D+00  E= 2.297770D+00

 Vector   60  Occ=0.000000D+00  E= 2.315134D+00

 Vector   61  Occ=0.000000D+00  E= 2.315787D+00

 Vector   62  Occ=0.000000D+00  E= 2.450896D+00

 Vector   63  Occ=0.000000D+00  E= 2.498187D+00

 Vector   64  Occ=0.000000D+00  E= 2.594507D+00

 Vector   65  Occ=0.000000D+00  E= 2.681488D+00

 Vector   66  Occ=0.000000D+00  E= 2.942986D+00

 Vector   67  Occ=0.000000D+00  E= 4.574286D+00

 Vector   68  Occ=0.000000D+00  E= 8.967618D+00

 Vector   69  Occ=0.000000D+00  E= 1.152388D+01

 Vector   70  Occ=0.000000D+00  E= 1.165375D+01

 Vector   71  Occ=0.000000D+00  E= 2.187434D+01

 Vector   72  Occ=0.000000D+00  E= 4.072983D+01

 Vector   73  Occ=0.000000D+00  E= 4.074207D+01

 Vector   74  Occ=0.000000D+00  E= 4.074909D+01

 Vector   75  Occ=0.000000D+00  E= 6.245899D+01

 Vector   76  Occ=0.000000D+00  E= 6.259529D+01

 Vector   77  Occ=0.000000D+00  E= 1.178137D+02

 Vector   78  Occ=0.000000D+00  E= 1.230066D+02

 Vector   79  Occ=0.000000D+00  E= 8.995548D+02

     Multipole analysis of the density
     ---------------------------------

     L   x y z        total         alpha         beta         nuclear
     -   - - -        -----         -----         ----         -------
     0   0 0 0     -0.000000    -21.000000    -20.000000     41.000000

     1   1 0 0      0.131431     -1.077751      1.209182      0.000000
     1   0 1 0      0.078977      0.400659     -0.321682     -0.000000
     1   0 0 1      0.496616      0.538491     -0.041874      0.000000

     2   2 0 0    -23.849178   -106.785207   -100.790647    183.726675
     2   1 1 0      0.753145     30.191317     28.917650    -58.355822
     2   1 0 1      3.658852     29.678113     28.341854    -54.361115
     2   0 2 0    -24.540596    -28.248685    -25.546868     29.254957
     2   0 1 1     -0.812195    -19.579808    -18.986928     37.754541

 Total times  cpu:       16.4s     wall:       17.3s
