 Output coordinates in angstroms (scale by  1.889725989 to convert to a.u.)

  No.       Tag          Charge          X              Y              Z
 ---- ---------------- ---------- -------------- -------------- --------------
    1 C                    6.0000     0.28965743     0.05978961     0.57253711
    2 O                    8.0000    -0.20171320    -0.08879637    -0.59455055
    3 H                    1.0000     1.34803382    -0.20291295     0.66639779
    4 H                    1.0000    -0.30702410     0.42478693     1.42032677
    5 H                    1.0000    -1.16524874     0.12975938    -0.76554278

         Total DFT energy =     -114.920040711091

                    DFT Final Alpha Molecular Orbital Analysis
                    ------------------------------------------

 Vector    1  Occ=1.000000D+00  E=-1.880121D+01

 Vector    2  Occ=1.000000D+00  E=-9.927310D+00

 Vector    3  Occ=1.000000D+00  E=-1.014678D+00

 Vector    4  Occ=1.000000D+00  E=-6.257532D-01

 Vector    5  Occ=1.000000D+00  E=-4.911890D-01

 Vector    6  Occ=1.000000D+00  E=-4.173815D-01

 Vector    7  Occ=1.000000D+00  E=-3.651647D-01

 Vector    8  Occ=1.000000D+00  E=-2.898907D-01

 Vector    9  Occ=1.000000D+00  E=-1.102164D-01

 Vector   10  Occ=0.000000D+00  E=-1.507604D-02

 Vector   11  Occ=0.000000D+00  E= 5.333415D-02

 Vector   12  Occ=0.000000D+00  E= 1.055820D-01

 Vector   13  Occ=0.000000D+00  E= 1.519707D-01

 Vector   14  Occ=0.000000D+00  E= 1.961208D-01

 Vector   15  Occ=0.000000D+00  E= 2.490516D-01

 Vector   16  Occ=0.000000D+00  E= 2.734702D-01

 Vector   17  Occ=0.000000D+00  E= 3.209786D-01

 Vector   18  Occ=0.000000D+00  E= 3.664710D-01

 Vector   19  Occ=0.000000D+00  E= 4.419267D-01

 Vector   20  Occ=0.000000D+00  E= 4.559538D-01

 Vector   21  Occ=0.000000D+00  E= 4.723514D-01

 Vector   22  Occ=0.000000D+00  E= 5.037633D-01

 Vector   23  Occ=0.000000D+00  E= 6.391369D-01

 Vector   24  Occ=0.000000D+00  E= 9.784747D-01

 Vector   25  Occ=0.000000D+00  E= 1.328130D+00

 Vector   26  Occ=0.000000D+00  E= 1.364492D+00

 Vector   27  Occ=0.000000D+00  E= 1.502886D+00

 Vector   28  Occ=0.000000D+00  E= 2.004067D+00

 Vector   29  Occ=0.000000D+00  E= 2.099721D+00

 Vector   30  Occ=0.000000D+00  E= 2.249426D+00

 Vector   31  Occ=0.000000D+00  E= 2.344154D+00

 Vector   32  Occ=0.000000D+00  E= 2.449348D+00

 Vector   33  Occ=0.000000D+00  E= 2.623092D+00

 Vector   34  Occ=0.000000D+00  E= 2.908867D+00

 Vector   35  Occ=0.000000D+00  E= 4.476191D+00

 Vector   36  Occ=0.000000D+00  E= 1.149790D+01

 Vector   37  Occ=0.000000D+00  E= 2.178186D+01

 Vector   38  Occ=0.000000D+00  E= 6.244374D+01

 Vector   39  Occ=0.000000D+00  E= 1.177255D+02

 Vector    1  Occ=1.000000D+00  E=-1.879532D+01

 Vector    2  Occ=1.000000D+00  E=-9.916164D+00

 Vector    3  Occ=1.000000D+00  E=-1.002272D+00

 Vector    4  Occ=1.000000D+00  E=-6.089545D-01

 Vector    5  Occ=1.000000D+00  E=-4.773729D-01

 Vector    6  Occ=1.000000D+00  E=-4.081869D-01

 Vector    7  Occ=1.000000D+00  E=-3.312323D-01

 Vector    8  Occ=1.000000D+00  E=-2.840025D-01

 Vector    9  Occ=0.000000D+00  E=-4.639031D-02

 Vector   10  Occ=0.000000D+00  E=-1.241504D-02

 Vector   11  Occ=0.000000D+00  E= 6.238540D-02

 Vector   12  Occ=0.000000D+00  E= 1.103992D-01

 Vector   13  Occ=0.000000D+00  E= 1.591050D-01

 Vector   14  Occ=0.000000D+00  E= 2.318525D-01

 Vector   15  Occ=0.000000D+00  E= 2.554355D-01

 Vector   16  Occ=0.000000D+00  E= 2.889869D-01

 Vector   17  Occ=0.000000D+00  E= 3.290376D-01

 Vector   18  Occ=0.000000D+00  E= 3.784962D-01

 Vector   19  Occ=0.000000D+00  E= 4.561109D-01

 Vector   20  Occ=0.000000D+00  E= 4.655567D-01

 Vector   21  Occ=0.000000D+00  E= 4.882279D-01

 Vector   22  Occ=0.000000D+00  E= 5.109899D-01

 Vector   23  Occ=0.000000D+00  E= 6.436595D-01

 Vector   24  Occ=0.000000D+00  E= 9.889936D-01

 Vector   25  Occ=0.000000D+00  E= 1.378810D+00

 Vector   26  Occ=0.000000D+00  E= 1.394878D+00

 Vector   27  Occ=0.000000D+00  E= 1.517009D+00

 Vector   28  Occ=0.000000D+00  E= 2.004269D+00

 Vector   29  Occ=0.000000D+00  E= 2.103811D+00

 Vector   30  Occ=0.000000D+00  E= 2.247699D+00

 Vector   31  Occ=0.000000D+00  E= 2.376037D+00

 Vector   32  Occ=0.000000D+00  E= 2.474005D+00

 Vector   33  Occ=0.000000D+00  E= 2.629890D+00

 Vector   34  Occ=0.000000D+00  E= 2.914522D+00

 Vector   35  Occ=0.000000D+00  E= 4.489785D+00

 Vector   36  Occ=0.000000D+00  E= 1.152129D+01

 Vector   37  Occ=0.000000D+00  E= 2.179395D+01

 Vector   38  Occ=0.000000D+00  E= 6.245677D+01

 Vector   39  Occ=0.000000D+00  E= 1.177324D+02

     Multipole analysis of the density
     ---------------------------------

     L   x y z        total         alpha         beta         nuclear
     -   - - -        -----         -----         ----         -------
     0   0 0 0     -0.000000     -9.000000     -8.000000     17.000000

     1   1 0 0     -0.701078     -0.554722     -0.146356      0.000000
     1   0 1 0      0.214136      0.072401      0.141735     -0.000000
     1   0 0 1      0.104459     -0.320294      0.424752      0.000000

     2   2 0 0     -7.112502    -11.385269    -10.362090     14.634857
     2   1 1 0     -0.781118     -0.103418      0.422020     -1.099720
     2   1 0 1      1.135575     -5.682324     -4.997922     11.815821
     2   0 2 0    -10.832388     -7.080677     -4.905101      1.153390
     2   0 1 1     -0.076045     -1.726456     -1.908231      3.558641

 Total times  cpu:        0.6s     wall:        0.9s
