 Output coordinates in angstroms (scale by  1.889725989 to convert to a.u.)

  No.       Tag          Charge          X              Y              Z
 ---- ---------------- ---------- -------------- -------------- --------------
    1 C                    6.0000    -0.00949886     0.10962454    -0.02487650
    2 C                    6.0000     0.09858448    -0.92819800    -1.09219515
    3 O                    8.0000     0.18731219    -2.19537741    -0.88393372
    4 H                    1.0000     0.10625835    -0.62513527    -2.14140898
    5 Cl                  17.0000    -1.59681561     0.96317072    -0.40762476
    6 Cl                  17.0000    -0.00781754    -0.63190099     1.65610757
    7 Cl                  17.0000     1.46819341     1.17366431    -0.31734375
    8 H                    1.0000     0.18020622    -2.48428363     0.08594459

         Total DFT energy =    -1532.438013193384

                    DFT Final Alpha Molecular Orbital Analysis
                    ------------------------------------------

 Vector    1  Occ=1.000000D+00  E=-1.007260D+02

 Vector   38  Occ=0.000000D+00  E=-1.043764D-01

 Vector   39  Occ=0.000000D+00  E=-5.961146D-02

 Vector   40  Occ=0.000000D+00  E=-1.027320D-02

 Vector   41  Occ=0.000000D+00  E=-6.566192D-03

 Vector   42  Occ=0.000000D+00  E= 6.295935D-02

 Vector   43  Occ=0.000000D+00  E= 1.164032D-01

 Vector   44  Occ=0.000000D+00  E= 1.447927D-01

 Vector   45  Occ=0.000000D+00  E= 1.932259D-01

 Vector   46  Occ=0.000000D+00  E= 2.195396D-01

 Vector   47  Occ=0.000000D+00  E= 2.401513D-01

 Vector   48  Occ=0.000000D+00  E= 2.540541D-01

 Vector   49  Occ=0.000000D+00  E= 2.614006D-01

 Vector   50  Occ=0.000000D+00  E= 2.749247D-01

 Vector   51  Occ=0.000000D+00  E= 3.068513D-01

 Vector   52  Occ=0.000000D+00  E= 3.136367D-01

 Vector   53  Occ=0.000000D+00  E= 3.237587D-01

 Vector   54  Occ=0.000000D+00  E= 3.353577D-01

 Vector   55  Occ=0.000000D+00  E= 3.605468D-01

 Vector   56  Occ=0.000000D+00  E= 3.686503D-01

 Vector   57  Occ=0.000000D+00  E= 3.839988D-01

 Vector   58  Occ=0.000000D+00  E= 3.950776D-01

 Vector   59  Occ=0.000000D+00  E= 4.024950D-01

 Vector   60  Occ=0.000000D+00  E= 4.068706D-01

 Vector   61  Occ=0.000000D+00  E= 4.344788D-01

 Vector   62  Occ=0.000000D+00  E= 4.610144D-01

 Vector   63  Occ=0.000000D+00  E= 4.685792D-01

 Vector   64  Occ=0.000000D+00  E= 5.009326D-01

 Vector   65  Occ=0.000000D+00  E= 5.787274D-01

 Vector   66  Occ=0.000000D+00  E= 6.675082D-01

 Vector   67  Occ=0.000000D+00  E= 8.811320D-01

 Vector   68  Occ=0.000000D+00  E= 8.828514D-01

 Vector   69  Occ=0.000000D+00  E= 9.445975D-01

 Vector   70  Occ=0.000000D+00  E= 1.072391D+00

 Vector   71  Occ=0.000000D+00  E= 1.277673D+00

 Vector   72  Occ=0.000000D+00  E= 1.326847D+00

 Vector   73  Occ=0.000000D+00  E= 1.338687D+00

 Vector   74  Occ=0.000000D+00  E= 1.418173D+00

 Vector   75  Occ=0.000000D+00  E= 1.488496D+00

 Vector   76  Occ=0.000000D+00  E= 1.549392D+00

 Vector   77  Occ=0.000000D+00  E= 1.985376D+00

 Vector   78  Occ=0.000000D+00  E= 2.150094D+00

 Vector   79  Occ=0.000000D+00  E= 2.190365D+00

 Vector   80  Occ=0.000000D+00  E= 2.195510D+00

 Vector   81  Occ=0.000000D+00  E= 2.229403D+00

 Vector   82  Occ=0.000000D+00  E= 2.253733D+00

 Vector   83  Occ=0.000000D+00  E= 2.254996D+00

 Vector   84  Occ=0.000000D+00  E= 2.266520D+00

 Vector   85  Occ=0.000000D+00  E= 2.295332D+00

 Vector   86  Occ=0.000000D+00  E= 2.322255D+00

 Vector   87  Occ=0.000000D+00  E= 2.326907D+00

 Vector   88  Occ=0.000000D+00  E= 2.381987D+00

 Vector   89  Occ=0.000000D+00  E= 2.484204D+00

 Vector   90  Occ=0.000000D+00  E= 2.530626D+00

 Vector   91  Occ=0.000000D+00  E= 2.625208D+00

 Vector   92  Occ=0.000000D+00  E= 2.901106D+00

 Vector   93  Occ=0.000000D+00  E= 4.535024D+00

 Vector   94  Occ=0.000000D+00  E= 8.933078D+00

 Vector   95  Occ=0.000000D+00  E= 9.003039D+00

 Vector   96  Occ=0.000000D+00  E= 9.036184D+00

 Vector   97  Occ=0.000000D+00  E= 1.149721D+01

 Vector   98  Occ=0.000000D+00  E= 1.156992D+01

 Vector   99  Occ=0.000000D+00  E= 2.183329D+01

 Vector  100  Occ=0.000000D+00  E= 4.069532D+01

 Vector  101  Occ=0.000000D+00  E= 4.070151D+01

 Vector  102  Occ=0.000000D+00  E= 4.070926D+01

 Vector  103  Occ=0.000000D+00  E= 4.071778D+01

 Vector  104  Occ=0.000000D+00  E= 4.072530D+01

 Vector  105  Occ=0.000000D+00  E= 4.072917D+01

 Vector  106  Occ=0.000000D+00  E= 4.073719D+01

 Vector  107  Occ=0.000000D+00  E= 4.073860D+01

 Vector  108  Occ=0.000000D+00  E= 4.077277D+01

 Vector  109  Occ=0.000000D+00  E= 6.240224D+01

 Vector  110  Occ=0.000000D+00  E= 6.250424D+01

 Vector  111  Occ=0.000000D+00  E= 1.177713D+02

 Vector  112  Occ=0.000000D+00  E= 1.229966D+02

 Vector  113  Occ=0.000000D+00  E= 1.230308D+02

 Vector  114  Occ=0.000000D+00  E= 1.230564D+02

 Vector  115  Occ=0.000000D+00  E= 8.995457D+02

 Vector  116  Occ=0.000000D+00  E= 8.995836D+02

 Vector  117  Occ=0.000000D+00  E= 8.996132D+02

     Multipole analysis of the density
     ---------------------------------

     L   x y z        total         alpha         beta         nuclear
     -   - - -        -----         -----         ----         -------
     0   0 0 0     -0.000000    -37.000000    -36.000000     73.000000

     1   1 0 0      0.035184     -0.063915      0.099098     -0.000000
     1   0 1 0     -0.608287      0.435434     -1.043721     -0.000000
     1   0 0 1      0.122936      0.912473     -0.789537      0.000000

     2   2 0 0    -42.999824   -166.639797   -163.389140    287.029113
     2   1 1 0     -0.041232      2.166046      1.818951     -4.026228
     2   1 0 1      0.143721     -1.131100     -1.379582      2.654403
     2   0 2 0    -41.532057   -196.235303   -189.324404    344.027650
     2   0 1 1     -2.730880     11.442611     14.682828    -28.856319

 Total times  cpu:        4.9s     wall:        5.3s
