 Output coordinates in angstroms (scale by  1.889725989 to convert to a.u.)

  No.       Tag          Charge          X              Y              Z
 ---- ---------------- ---------- -------------- -------------- --------------
    1 C                    6.0000    -0.66895166    -0.00000349     0.00000346
    2 C                    6.0000     0.66895154     0.00000350    -0.00000345
    3 H                    1.0000    -1.24632607     0.40201506     0.83551634
    4 H                    1.0000    -1.24632446    -0.40201266    -0.83551713
    5 H                    1.0000     1.24632485     0.40201250     0.83551733
    6 H                    1.0000     1.24632642    -0.40201489    -0.83551654

         Total DFT energy =      -78.393480895181

                    DFT Final Alpha Molecular Orbital Analysis
                    ------------------------------------------

 Vector    1  Occ=1.000000D+00  E=-9.606742D+00

 Vector    5  Occ=1.000000D+00  E=-1.652565D-01

 Vector    6  Occ=1.000000D+00  E=-1.145682D-01

 Vector    7  Occ=1.000000D+00  E=-6.045077D-02

 Vector    8  Occ=1.000000D+00  E= 1.280418D-02

 Vector    9  Occ=1.000000D+00  E= 2.054484D-01

 Vector   10  Occ=0.000000D+00  E= 2.396157D-01

 Vector   11  Occ=0.000000D+00  E= 2.594554D-01

 Vector   12  Occ=0.000000D+00  E= 2.684239D-01

 Vector   13  Occ=0.000000D+00  E= 3.181769D-01

 Vector   14  Occ=0.000000D+00  E= 3.858365D-01

 Vector   15  Occ=0.000000D+00  E= 3.934583D-01

 Vector   16  Occ=0.000000D+00  E= 4.098751D-01

 Vector   17  Occ=0.000000D+00  E= 4.732322D-01

 Vector   18  Occ=0.000000D+00  E= 4.877930D-01

 Vector   19  Occ=0.000000D+00  E= 5.341628D-01

 Vector   20  Occ=0.000000D+00  E= 6.028377D-01

 Vector   21  Occ=0.000000D+00  E= 6.334307D-01

 Vector   22  Occ=0.000000D+00  E= 6.652369D-01

 Vector   23  Occ=0.000000D+00  E= 7.057952D-01

 Vector   24  Occ=0.000000D+00  E= 7.095310D-01

 Vector   25  Occ=0.000000D+00  E= 8.148307D-01

 Vector   26  Occ=0.000000D+00  E= 8.374250D-01

 Vector   27  Occ=0.000000D+00  E= 1.621735D+00

 Vector   28  Occ=0.000000D+00  E= 1.638729D+00

 Vector   29  Occ=0.000000D+00  E= 1.665821D+00

 Vector   30  Occ=0.000000D+00  E= 1.713264D+00

 Vector   31  Occ=0.000000D+00  E= 1.733426D+00

 Vector   32  Occ=0.000000D+00  E= 1.946448D+00

 Vector   33  Occ=0.000000D+00  E= 2.342444D+00

 Vector   34  Occ=0.000000D+00  E= 2.368959D+00

 Vector   35  Occ=0.000000D+00  E= 2.501093D+00

 Vector   36  Occ=0.000000D+00  E= 2.646958D+00

 Vector   37  Occ=0.000000D+00  E= 2.693793D+00

 Vector   38  Occ=0.000000D+00  E= 2.869560D+00

 Vector   39  Occ=0.000000D+00  E= 1.167999D+01

 Vector   40  Occ=0.000000D+00  E= 1.206471D+01

 Vector   41  Occ=0.000000D+00  E= 6.263829D+01

 Vector   42  Occ=0.000000D+00  E= 6.301423D+01

 Vector    1  Occ=1.000000D+00  E=-9.601639D+00

 Vector    2  Occ=1.000000D+00  E=-9.600973D+00

 Vector    3  Occ=1.000000D+00  E=-4.117167D-01

 Vector    4  Occ=1.000000D+00  E=-2.521160D-01

 Vector    5  Occ=1.000000D+00  E=-1.606916D-01

 Vector    6  Occ=1.000000D+00  E=-1.087731D-01

 Vector    7  Occ=1.000000D+00  E=-5.667447D-02

 Vector    8  Occ=1.000000D+00  E= 4.354702D-02

 Vector    9  Occ=0.000000D+00  E= 2.436640D-01

 Vector   10  Occ=0.000000D+00  E= 2.442237D-01

 Vector   11  Occ=0.000000D+00  E= 2.657930D-01

 Vector   12  Occ=0.000000D+00  E= 2.710588D-01

 Vector   13  Occ=0.000000D+00  E= 3.201505D-01

 Vector   14  Occ=0.000000D+00  E= 3.926286D-01

 Vector   15  Occ=0.000000D+00  E= 4.007475D-01

 Vector   16  Occ=0.000000D+00  E= 4.300509D-01

 Vector   17  Occ=0.000000D+00  E= 4.747334D-01

 Vector   18  Occ=0.000000D+00  E= 5.201587D-01

 Vector   19  Occ=0.000000D+00  E= 5.479616D-01

 Vector   20  Occ=0.000000D+00  E= 6.051060D-01

 Vector   21  Occ=0.000000D+00  E= 6.496893D-01

 Vector   22  Occ=0.000000D+00  E= 6.746264D-01

 Vector   23  Occ=0.000000D+00  E= 7.152236D-01

 Vector   24  Occ=0.000000D+00  E= 7.246436D-01

 Vector   25  Occ=0.000000D+00  E= 8.241144D-01

 Vector   26  Occ=0.000000D+00  E= 8.593935D-01

 Vector   27  Occ=0.000000D+00  E= 1.648043D+00

 Vector   28  Occ=0.000000D+00  E= 1.651486D+00

 Vector   29  Occ=0.000000D+00  E= 1.703470D+00

 Vector   30  Occ=0.000000D+00  E= 1.718649D+00

 Vector   31  Occ=0.000000D+00  E= 1.741001D+00

 Vector   32  Occ=0.000000D+00  E= 1.953162D+00

 Vector   33  Occ=0.000000D+00  E= 2.347271D+00

 Vector   34  Occ=0.000000D+00  E= 2.369793D+00

 Vector   35  Occ=0.000000D+00  E= 2.501478D+00

 Vector   36  Occ=0.000000D+00  E= 2.663772D+00

 Vector   37  Occ=0.000000D+00  E= 2.697094D+00

 Vector   38  Occ=0.000000D+00  E= 2.886843D+00

 Vector   39  Occ=0.000000D+00  E= 1.169032D+01

 Vector   40  Occ=0.000000D+00  E= 1.207587D+01

 Vector   41  Occ=0.000000D+00  E= 6.264428D+01

 Vector   42  Occ=0.000000D+00  E= 6.302036D+01

     Multipole analysis of the density
     ---------------------------------

     L   x y z        total         alpha         beta         nuclear
     -   - - -        -----         -----         ----         -------
     0   0 0 0     -1.000000     -9.000000     -8.000000     16.000000

     1   1 0 0     -0.000000     -0.000000     -0.000000      0.000000
     1   0 1 0     -0.000000     -0.000000     -0.000000      0.000000
     1   0 0 1     -0.000000     -0.000000     -0.000000      0.000000

     2   2 0 0    -16.627718    -31.401086    -26.591211     41.364579
     2   1 1 0     -0.000046     -0.000079     -0.000040      0.000074
     2   1 0 1      0.000015      0.000073      0.000044     -0.000101
     2   0 2 0    -16.162209    -10.913384     -7.557377      2.308551
     2   0 1 1      1.726821     -0.990152     -2.080956      4.797929

 Total times  cpu:        0.8s     wall:        0.9s
