 Output coordinates in angstroms (scale by  1.889725989 to convert to a.u.)

  No.       Tag          Charge          X              Y              Z
 ---- ---------------- ---------- -------------- -------------- --------------
    1 C                    6.0000    -0.14249165    -0.19689509    -0.40952527
    2 C                    6.0000     1.19657071    -0.22805966    -0.47391638
    3 H                    1.0000     1.81827955     0.16170130     0.33673791
    4 H                    1.0000     1.72232347    -0.64257136    -1.33562288
    5 C                    6.0000    -0.94223841     0.35511898     0.73821364
    6 H                    1.0000    -0.72456646    -0.59968961    -1.24731409
    7 H                    1.0000    -0.28950084     0.73891847     1.53525175
    8 H                    1.0000    -1.59846769    -0.41624704     1.17449095
    9 H                    1.0000    -1.59911187     1.17690282     0.40782440

         Total DFT energy =     -117.655495430250

                    DFT Final Alpha Molecular Orbital Analysis
                    ------------------------------------------

 Vector    1  Occ=1.000000D+00  E=-9.680812D+00

 Vector   47  Occ=0.000000D+00  E= 1.878687D+00

 Vector   48  Occ=0.000000D+00  E= 1.989117D+00

 Vector   49  Occ=0.000000D+00  E= 2.289908D+00

 Vector   50  Occ=0.000000D+00  E= 2.365801D+00

 Vector   51  Occ=0.000000D+00  E= 2.473001D+00

 Vector   52  Occ=0.000000D+00  E= 2.477163D+00

 Vector   53  Occ=0.000000D+00  E= 2.491419D+00

 Vector   54  Occ=0.000000D+00  E= 2.634943D+00

 Vector   55  Occ=0.000000D+00  E= 2.675365D+00

 Vector   56  Occ=0.000000D+00  E= 2.876198D+00

 Vector   57  Occ=0.000000D+00  E= 2.960828D+00

 Vector   58  Occ=0.000000D+00  E= 1.168930D+01

 Vector   59  Occ=0.000000D+00  E= 1.189661D+01

 Vector   60  Occ=0.000000D+00  E= 1.208436D+01

 Vector   61  Occ=0.000000D+00  E= 6.264730D+01

 Vector   62  Occ=0.000000D+00  E= 6.284462D+01

 Vector   63  Occ=0.000000D+00  E= 6.303545D+01

 Vector    1  Occ=1.000000D+00  E=-9.680629D+00

 Vector    2  Occ=1.000000D+00  E=-9.629374D+00

 Vector    3  Occ=1.000000D+00  E=-9.623052D+00

 Vector    4  Occ=1.000000D+00  E=-4.768359D-01

 Vector    5  Occ=1.000000D+00  E=-3.920940D-01

 Vector    6  Occ=1.000000D+00  E=-2.619038D-01

 Vector    7  Occ=1.000000D+00  E=-1.919053D-01

 Vector    8  Occ=1.000000D+00  E=-1.570943D-01

 Vector    9  Occ=1.000000D+00  E=-1.499770D-01

 Vector   10  Occ=1.000000D+00  E=-1.072872D-01

 Vector   11  Occ=1.000000D+00  E=-7.603299D-02

 Vector   12  Occ=1.000000D+00  E= 2.847374D-02

 Vector   13  Occ=0.000000D+00  E= 2.067500D-01

 Vector   14  Occ=0.000000D+00  E= 2.278369D-01

 Vector   15  Occ=0.000000D+00  E= 2.384003D-01

 Vector   16  Occ=0.000000D+00  E= 2.474078D-01

 Vector   17  Occ=0.000000D+00  E= 2.707597D-01

 Vector   18  Occ=0.000000D+00  E= 2.772845D-01

 Vector   19  Occ=0.000000D+00  E= 2.926916D-01

 Vector   20  Occ=0.000000D+00  E= 3.303389D-01

 Vector   21  Occ=0.000000D+00  E= 3.768214D-01

 Vector   22  Occ=0.000000D+00  E= 3.877118D-01

 Vector   23  Occ=0.000000D+00  E= 4.132458D-01

 Vector   24  Occ=0.000000D+00  E= 4.421180D-01

 Vector   25  Occ=0.000000D+00  E= 4.501016D-01

 Vector   26  Occ=0.000000D+00  E= 5.082761D-01

 Vector   27  Occ=0.000000D+00  E= 5.222949D-01

 Vector   28  Occ=0.000000D+00  E= 5.267493D-01

 Vector   29  Occ=0.000000D+00  E= 5.730397D-01

 Vector   30  Occ=0.000000D+00  E= 6.130157D-01

 Vector   31  Occ=0.000000D+00  E= 6.233800D-01

 Vector   32  Occ=0.000000D+00  E= 6.255551D-01

 Vector   33  Occ=0.000000D+00  E= 6.483161D-01

 Vector   34  Occ=0.000000D+00  E= 6.681368D-01

 Vector   35  Occ=0.000000D+00  E= 7.004576D-01

 Vector   36  Occ=0.000000D+00  E= 7.365558D-01

 Vector   37  Occ=0.000000D+00  E= 8.186516D-01

 Vector   38  Occ=0.000000D+00  E= 8.680256D-01

 Vector   39  Occ=0.000000D+00  E= 8.816432D-01

 Vector   40  Occ=0.000000D+00  E= 1.585137D+00

 Vector   41  Occ=0.000000D+00  E= 1.625507D+00

 Vector   42  Occ=0.000000D+00  E= 1.631540D+00

 Vector   43  Occ=0.000000D+00  E= 1.659650D+00

 Vector   44  Occ=0.000000D+00  E= 1.673036D+00

 Vector   45  Occ=0.000000D+00  E= 1.735809D+00

 Vector   46  Occ=0.000000D+00  E= 1.743936D+00

 Vector   47  Occ=0.000000D+00  E= 1.884115D+00

 Vector   48  Occ=0.000000D+00  E= 1.995511D+00

 Vector   49  Occ=0.000000D+00  E= 2.295543D+00

 Vector   50  Occ=0.000000D+00  E= 2.369441D+00

 Vector   51  Occ=0.000000D+00  E= 2.474652D+00

 Vector   52  Occ=0.000000D+00  E= 2.484547D+00

 Vector   53  Occ=0.000000D+00  E= 2.495137D+00

 Vector   54  Occ=0.000000D+00  E= 2.640616D+00

 Vector   55  Occ=0.000000D+00  E= 2.686260D+00

 Vector   56  Occ=0.000000D+00  E= 2.889194D+00

 Vector   57  Occ=0.000000D+00  E= 2.965285D+00

 Vector   58  Occ=0.000000D+00  E= 1.169801D+01

 Vector   59  Occ=0.000000D+00  E= 1.189709D+01

 Vector   60  Occ=0.000000D+00  E= 1.209426D+01

 Vector   61  Occ=0.000000D+00  E= 6.265238D+01

 Vector   62  Occ=0.000000D+00  E= 6.284523D+01

 Vector   63  Occ=0.000000D+00  E= 6.304100D+01

     Multipole analysis of the density
     ---------------------------------

     L   x y z        total         alpha         beta         nuclear
     -   - - -        -----         -----         ----         -------
     0   0 0 0     -1.000000    -13.000000    -12.000000     24.000000

     1   1 0 0     -0.382258     -0.307084     -0.075175      0.000000
     1   0 1 0      0.361014      0.406893     -0.045879     -0.000000
     1   0 0 1      0.104659      0.125676     -0.021016      0.000000

     2   2 0 0    -24.985330    -62.818434    -55.132396     92.965499
     2   1 1 0      0.546288      9.739896      9.680838    -18.874446
     2   1 0 1      2.859376     22.236338     19.847934    -39.224895
     2   0 2 0    -21.233555    -19.815362    -16.432253     15.014060
     2   0 1 1      1.221807     -8.675732     -9.712649     19.610188

 Total times  cpu:       90.4s     wall:       95.1s
