 Output coordinates in angstroms (scale by  1.889725989 to convert to a.u.)

  No.       Tag          Charge          X              Y              Z
 ---- ---------------- ---------- -------------- -------------- --------------
    1 C                    6.0000     0.30984579    -0.30197740    -0.93097775
    2 C                    6.0000     1.51718689    -0.50702506    -0.38371489
    3 H                    1.0000     1.71874824    -0.31687404     0.67224682
    4 H                    1.0000     2.35558335    -0.87574971    -0.97691182
    5 C                    6.0000    -0.92326496     0.20281730    -0.22030980
    6 H                    1.0000     0.17174794    -0.51238308    -1.99879055
    7 C                    6.0000    -0.75339037     0.50377803     1.27301478
    8 H                    1.0000    -1.27942190     1.11078366    -0.74248944
    9 H                    1.0000    -1.73322720    -0.53795622    -0.35861911
   10 H                    1.0000     0.01155542     1.27697081     1.44023676
   11 H                    1.0000    -0.45028357    -0.39563704     1.82989373
   12 H                    1.0000    -1.69696641     0.86528851     1.70635961

         Total DFT energy =     -156.920343017594

                    DFT Final Alpha Molecular Orbital Analysis
                    ------------------------------------------

 Vector    1  Occ=1.000000D+00  E=-9.700634D+00

 Vector    5  Occ=1.000000D+00  E=-5.222787D-01

 Vector    6  Occ=1.000000D+00  E=-4.480506D-01

 Vector    7  Occ=1.000000D+00  E=-3.792102D-01

 Vector    8  Occ=1.000000D+00  E=-2.725486D-01

 Vector    9  Occ=1.000000D+00  E=-2.235754D-01

 Vector   10  Occ=1.000000D+00  E=-2.111613D-01

 Vector   11  Occ=1.000000D+00  E=-1.740979D-01

 Vector   12  Occ=1.000000D+00  E=-1.506644D-01

 Vector   13  Occ=1.000000D+00  E=-1.235873D-01

 Vector   14  Occ=1.000000D+00  E=-1.122181D-01

 Vector   15  Occ=1.000000D+00  E=-9.001351D-02

 Vector   16  Occ=1.000000D+00  E= 1.590288D-03

 Vector   17  Occ=0.000000D+00  E= 1.884838D-01

 Vector   18  Occ=0.000000D+00  E= 2.040925D-01

 Vector   19  Occ=0.000000D+00  E= 2.095558D-01

 Vector   20  Occ=0.000000D+00  E= 2.293761D-01

 Vector   21  Occ=0.000000D+00  E= 2.456676D-01

 Vector   22  Occ=0.000000D+00  E= 2.508335D-01

 Vector   23  Occ=0.000000D+00  E= 2.600691D-01

 Vector   24  Occ=0.000000D+00  E= 2.730185D-01

 Vector   25  Occ=0.000000D+00  E= 2.858840D-01

 Vector   26  Occ=0.000000D+00  E= 3.241223D-01

 Vector   27  Occ=0.000000D+00  E= 3.373134D-01

 Vector   28  Occ=0.000000D+00  E= 3.600198D-01

 Vector   29  Occ=0.000000D+00  E= 3.741502D-01

 Vector   30  Occ=0.000000D+00  E= 3.815743D-01

 Vector   31  Occ=0.000000D+00  E= 4.146055D-01

 Vector   32  Occ=0.000000D+00  E= 4.400765D-01

 Vector   33  Occ=0.000000D+00  E= 4.767924D-01

 Vector   34  Occ=0.000000D+00  E= 4.840087D-01

 Vector   35  Occ=0.000000D+00  E= 5.010336D-01

 Vector   36  Occ=0.000000D+00  E= 5.104134D-01

 Vector   37  Occ=0.000000D+00  E= 5.588653D-01

 Vector   38  Occ=0.000000D+00  E= 5.704324D-01

 Vector   39  Occ=0.000000D+00  E= 5.730960D-01

 Vector   40  Occ=0.000000D+00  E= 5.843025D-01

 Vector   41  Occ=0.000000D+00  E= 6.103939D-01

 Vector   42  Occ=0.000000D+00  E= 6.202660D-01

 Vector   43  Occ=0.000000D+00  E= 6.365941D-01

 Vector   44  Occ=0.000000D+00  E= 6.468197D-01

 Vector   45  Occ=0.000000D+00  E= 6.543707D-01

 Vector   46  Occ=0.000000D+00  E= 6.640369D-01

 Vector   47  Occ=0.000000D+00  E= 7.050280D-01

 Vector   48  Occ=0.000000D+00  E= 7.372661D-01

 Vector   49  Occ=0.000000D+00  E= 7.954596D-01

 Vector   50  Occ=0.000000D+00  E= 8.518527D-01

 Vector   51  Occ=0.000000D+00  E= 8.589441D-01

 Vector   52  Occ=0.000000D+00  E= 9.528677D-01

 Vector   53  Occ=0.000000D+00  E= 1.564293D+00

 Vector   54  Occ=0.000000D+00  E= 1.611127D+00

 Vector   55  Occ=0.000000D+00  E= 1.611778D+00

 Vector   56  Occ=0.000000D+00  E= 1.623845D+00

 Vector   57  Occ=0.000000D+00  E= 1.655267D+00

 Vector   58  Occ=0.000000D+00  E= 1.661009D+00

 Vector   59  Occ=0.000000D+00  E= 1.700092D+00

 Vector   60  Occ=0.000000D+00  E= 1.723161D+00

 Vector   61  Occ=0.000000D+00  E= 1.789171D+00

 Vector   62  Occ=0.000000D+00  E= 1.792884D+00

 Vector   63  Occ=0.000000D+00  E= 1.913331D+00

 Vector   64  Occ=0.000000D+00  E= 2.008106D+00

 Vector   65  Occ=0.000000D+00  E= 2.315151D+00

 Vector   66  Occ=0.000000D+00  E= 2.334230D+00

 Vector   67  Occ=0.000000D+00  E= 2.408293D+00

 Vector   68  Occ=0.000000D+00  E= 2.466239D+00

 Vector   69  Occ=0.000000D+00  E= 2.495919D+00

 Vector   70  Occ=0.000000D+00  E= 2.537800D+00

 Vector   71  Occ=0.000000D+00  E= 2.539131D+00

 Vector   72  Occ=0.000000D+00  E= 2.640323D+00

 Vector   73  Occ=0.000000D+00  E= 2.710027D+00

 Vector   74  Occ=0.000000D+00  E= 2.868987D+00

 Vector   75  Occ=0.000000D+00  E= 2.908227D+00

 Vector   76  Occ=0.000000D+00  E= 3.032808D+00

 Vector   77  Occ=0.000000D+00  E= 1.170009D+01

 Vector   78  Occ=0.000000D+00  E= 1.187405D+01

 Vector   79  Occ=0.000000D+00  E= 1.192805D+01

 Vector   80  Occ=0.000000D+00  E= 1.207379D+01

 Vector   81  Occ=0.000000D+00  E= 6.265574D+01

 Vector   82  Occ=0.000000D+00  E= 6.282075D+01

 Vector   83  Occ=0.000000D+00  E= 6.287362D+01

 Vector   84  Occ=0.000000D+00  E= 6.302264D+01

     Multipole analysis of the density
     ---------------------------------

     L   x y z        total         alpha         beta         nuclear
     -   - - -        -----         -----         ----         -------
     0   0 0 0     -1.000000    -17.000000    -16.000000     32.000000

     1   1 0 0     -0.177352     -0.067456     -0.109896     -0.000000
     1   0 1 0      0.457728      0.495167     -0.037439     -0.000000
     1   0 0 1      0.021956      0.091631     -0.069675      0.000000

     2   2 0 0    -32.810982    -91.574072    -81.091219    139.854309
     2   1 1 0      1.258990     24.387317     23.429185    -46.557512
     2   1 0 1      2.975904     26.610305     24.140359    -47.774759
     2   0 2 0    -27.886637    -32.623504    -27.574763     32.311630
     2   0 1 1     -0.394033    -18.324901    -17.995555     35.926423

 Total times  cpu:      167.1s     wall:      175.8s
