 Output coordinates in angstroms (scale by  1.889725989 to convert to a.u.)

  No.       Tag          Charge          X              Y              Z
 ---- ---------------- ---------- -------------- -------------- --------------
    1 C                    6.0000     0.74532643    -0.51756648    -1.33648511
    2 C                    6.0000     1.95895077    -0.72604011    -0.80412369
    3 H                    1.0000     2.17521108    -0.53823327     0.24927633
    4 H                    1.0000     2.78871660    -1.09589824    -1.40876349
    5 C                    6.0000    -0.47908100    -0.01158466    -0.61322382
    6 H                    1.0000     0.59551869    -0.72667429    -2.40303135
    7 C                    6.0000    -0.30735245     0.29084909     0.88151995
    8 H                    1.0000    -0.84085596     0.89968556    -1.12794861
    9 H                    1.0000    -1.29442023    -0.74972231    -0.74204456
   10 H                    1.0000     0.48989420     1.04189571     1.01365714
   11 H                    1.0000     0.03400582    -0.61993885     1.40216628
   12 C                    6.0000    -1.60479910     0.79792512     1.52821767
   13 H                    1.0000    -1.95219255     1.72521400     1.04588270
   14 H                    1.0000    -1.46335538     1.00940051     2.59837978
   15 H                    1.0000    -2.41079010     0.05277351     1.43699589

         Total DFT energy =     -196.188685754114

                    DFT Final Alpha Molecular Orbital Analysis
                    ------------------------------------------

 Vector    1  Occ=1.000000D+00  E=-9.718830D+00

 Vector   26  Occ=0.000000D+00  E= 2.271227D-01

 Vector   27  Occ=0.000000D+00  E= 2.418798D-01

 Vector   28  Occ=0.000000D+00  E= 2.579036D-01

 Vector   29  Occ=0.000000D+00  E= 2.600482D-01

 Vector   30  Occ=0.000000D+00  E= 2.754425D-01

 Vector   31  Occ=0.000000D+00  E= 2.760634D-01

 Vector   32  Occ=0.000000D+00  E= 2.895578D-01

 Vector   33  Occ=0.000000D+00  E= 3.343495D-01

 Vector   34  Occ=0.000000D+00  E= 3.400286D-01

 Vector   35  Occ=0.000000D+00  E= 3.426965D-01

 Vector   36  Occ=0.000000D+00  E= 3.636191D-01

 Vector   37  Occ=0.000000D+00  E= 3.863581D-01

 Vector   38  Occ=0.000000D+00  E= 4.113113D-01

 Vector   39  Occ=0.000000D+00  E= 4.278629D-01

 Vector   40  Occ=0.000000D+00  E= 4.401673D-01

 Vector   41  Occ=0.000000D+00  E= 4.420865D-01

 Vector   42  Occ=0.000000D+00  E= 4.538565D-01

 Vector   43  Occ=0.000000D+00  E= 4.884138D-01

 Vector   44  Occ=0.000000D+00  E= 4.940285D-01

 Vector   45  Occ=0.000000D+00  E= 5.364445D-01

 Vector   46  Occ=0.000000D+00  E= 5.428063D-01

 Vector   47  Occ=0.000000D+00  E= 5.527354D-01

 Vector   48  Occ=0.000000D+00  E= 5.624302D-01

 Vector   49  Occ=0.000000D+00  E= 5.782606D-01

 Vector   50  Occ=0.000000D+00  E= 5.930989D-01

 Vector   51  Occ=0.000000D+00  E= 5.979695D-01

 Vector   52  Occ=0.000000D+00  E= 6.041830D-01

 Vector   53  Occ=0.000000D+00  E= 6.239467D-01

 Vector   54  Occ=0.000000D+00  E= 6.295445D-01

 Vector   55  Occ=0.000000D+00  E= 6.442129D-01

 Vector   56  Occ=0.000000D+00  E= 6.464813D-01

 Vector   57  Occ=0.000000D+00  E= 6.510092D-01

 Vector   58  Occ=0.000000D+00  E= 6.764736D-01

 Vector   59  Occ=0.000000D+00  E= 7.169382D-01

 Vector   60  Occ=0.000000D+00  E= 7.390906D-01

 Vector   61  Occ=0.000000D+00  E= 7.815679D-01

 Vector   62  Occ=0.000000D+00  E= 8.433160D-01

 Vector   63  Occ=0.000000D+00  E= 8.572750D-01

 Vector   64  Occ=0.000000D+00  E= 8.899350D-01

 Vector   65  Occ=0.000000D+00  E= 9.752939D-01

 Vector   66  Occ=0.000000D+00  E= 1.554948D+00

 Vector   67  Occ=0.000000D+00  E= 1.579455D+00

 Vector   68  Occ=0.000000D+00  E= 1.594833D+00

 Vector   69  Occ=0.000000D+00  E= 1.600344D+00

 Vector   70  Occ=0.000000D+00  E= 1.601499D+00

 Vector   71  Occ=0.000000D+00  E= 1.637828D+00

 Vector   72  Occ=0.000000D+00  E= 1.647730D+00

 Vector   73  Occ=0.000000D+00  E= 1.679079D+00

 Vector   74  Occ=0.000000D+00  E= 1.692490D+00

 Vector   75  Occ=0.000000D+00  E= 1.709213D+00

 Vector   76  Occ=0.000000D+00  E= 1.775112D+00

 Vector   77  Occ=0.000000D+00  E= 1.824653D+00

 Vector   78  Occ=0.000000D+00  E= 1.877472D+00

 Vector   79  Occ=0.000000D+00  E= 1.925437D+00

 Vector   80  Occ=0.000000D+00  E= 2.019264D+00

 Vector   81  Occ=0.000000D+00  E= 2.274631D+00

 Vector   82  Occ=0.000000D+00  E= 2.324856D+00

 Vector   83  Occ=0.000000D+00  E= 2.392446D+00

 Vector   84  Occ=0.000000D+00  E= 2.443515D+00

 Vector   85  Occ=0.000000D+00  E= 2.456428D+00

 Vector   86  Occ=0.000000D+00  E= 2.490460D+00

 Vector   87  Occ=0.000000D+00  E= 2.497087D+00

 Vector   88  Occ=0.000000D+00  E= 2.510301D+00

 Vector   89  Occ=0.000000D+00  E= 2.585631D+00

 Vector   90  Occ=0.000000D+00  E= 2.625627D+00

 Vector   91  Occ=0.000000D+00  E= 2.738164D+00

 Vector   92  Occ=0.000000D+00  E= 2.854518D+00

 Vector   93  Occ=0.000000D+00  E= 2.916537D+00

 Vector   94  Occ=0.000000D+00  E= 2.943263D+00

 Vector   95  Occ=0.000000D+00  E= 3.065081D+00

 Vector   96  Occ=0.000000D+00  E= 1.170489D+01

 Vector   97  Occ=0.000000D+00  E= 1.187465D+01

 Vector   98  Occ=0.000000D+00  E= 1.190810D+01

 Vector   99  Occ=0.000000D+00  E= 1.193931D+01

 Vector  100  Occ=0.000000D+00  E= 1.206288D+01

 Vector  101  Occ=0.000000D+00  E= 6.266115D+01

 Vector  102  Occ=0.000000D+00  E= 6.282081D+01

 Vector  103  Occ=0.000000D+00  E= 6.285517D+01

 Vector  104  Occ=0.000000D+00  E= 6.288563D+01

 Vector  105  Occ=0.000000D+00  E= 6.301284D+01

     Multipole analysis of the density
     ---------------------------------

     L   x y z        total         alpha         beta         nuclear
     -   - - -        -----         -----         ----         -------
     0   0 0 0     -1.000000    -21.000000    -20.000000     40.000000

     1   1 0 0     -0.380933     -0.312077     -0.068856     -0.000000
     1   0 1 0     -0.299507     -0.367089      0.067582     -0.000000
     1   0 0 1      0.161484      0.247193     -0.085709     -0.000000

     2   2 0 0    -40.150934   -152.643919   -141.071858    253.564843
     2   1 1 0      4.421349     54.258040     50.020917    -99.857608
     2   1 0 1      5.568651     79.411668     74.993955   -148.836972
     2   0 2 0    -35.639073    -53.946069    -45.817524     64.124520
     2   0 1 1     -2.392792    -45.107169    -42.769679     85.484056

 Total times  cpu:      181.9s     wall:      188.1s
