 Output coordinates in angstroms (scale by  1.889725989 to convert to a.u.)

  No.       Tag          Charge          X              Y              Z
 ---- ---------------- ---------- -------------- -------------- --------------
    1 C                    6.0000    -0.46645994     0.41958267     0.23996048
    2 C                    6.0000     0.46646513    -0.41957496    -0.23996387
    3 H                    1.0000    -1.28634079     0.72932280    -0.42133078
    4 C                    6.0000    -0.48883785     0.98542524     1.63345147
    5 C                    6.0000     0.48883486    -0.98543036    -1.63344942
    6 H                    1.0000     1.28633704    -0.72932580     0.42133319
    7 H                    1.0000     0.36534659     0.62529388     2.22534693
    8 H                    1.0000    -1.41312845     0.70636015     2.16664530
    9 H                    1.0000    -0.45279499     2.08770842     1.62119486
   10 H                    1.0000    -0.36534835    -0.62529570    -2.22534505
   11 H                    1.0000     0.45278992    -2.08771277    -1.62119190
   12 H                    1.0000     1.41312583    -0.70636660    -2.16664441

         Total DFT energy =     -156.917043349472

                    DFT Final Alpha Molecular Orbital Analysis
                    ------------------------------------------

 Vector    1  Occ=1.000000D+00  E=-9.693452D+00

 Vector    5  Occ=1.000000D+00  E=-5.053959D-01

 Vector    6  Occ=1.000000D+00  E=-4.603597D-01

 Vector    7  Occ=1.000000D+00  E=-3.760355D-01

 Vector    8  Occ=1.000000D+00  E=-2.760198D-01

 Vector    9  Occ=1.000000D+00  E=-1.950182D-01

 Vector   10  Occ=1.000000D+00  E=-1.932275D-01

 Vector   11  Occ=1.000000D+00  E=-1.743081D-01

 Vector   12  Occ=1.000000D+00  E=-1.655825D-01

 Vector   13  Occ=1.000000D+00  E=-1.356887D-01

 Vector   14  Occ=1.000000D+00  E=-1.142999D-01

 Vector   15  Occ=1.000000D+00  E=-9.083786D-02

 Vector   16  Occ=1.000000D+00  E= 1.943770D-02

 Vector   17  Occ=0.000000D+00  E= 1.975636D-01

 Vector   18  Occ=0.000000D+00  E= 1.988738D-01

 Vector   19  Occ=0.000000D+00  E= 2.166226D-01

 Vector   20  Occ=0.000000D+00  E= 2.211510D-01

 Vector   21  Occ=0.000000D+00  E= 2.572176D-01

 Vector   22  Occ=0.000000D+00  E= 2.572943D-01

 Vector   23  Occ=0.000000D+00  E= 2.637680D-01

 Vector   24  Occ=0.000000D+00  E= 2.694999D-01

 Vector   25  Occ=0.000000D+00  E= 2.798717D-01

 Vector   26  Occ=0.000000D+00  E= 3.088720D-01

 Vector   27  Occ=0.000000D+00  E= 3.354236D-01

 Vector   28  Occ=0.000000D+00  E= 3.604828D-01

 Vector   29  Occ=0.000000D+00  E= 3.831250D-01

 Vector   30  Occ=0.000000D+00  E= 3.898942D-01

 Vector   31  Occ=0.000000D+00  E= 3.973324D-01

 Vector   32  Occ=0.000000D+00  E= 4.565800D-01

 Vector   33  Occ=0.000000D+00  E= 4.704238D-01

 Vector   34  Occ=0.000000D+00  E= 4.923784D-01

 Vector   35  Occ=0.000000D+00  E= 5.000543D-01

 Vector   36  Occ=0.000000D+00  E= 5.120727D-01

 Vector   37  Occ=0.000000D+00  E= 5.343163D-01

 Vector   38  Occ=0.000000D+00  E= 5.562761D-01

 Vector   39  Occ=0.000000D+00  E= 5.901767D-01

 Vector   40  Occ=0.000000D+00  E= 5.914625D-01

 Vector   41  Occ=0.000000D+00  E= 6.002149D-01

 Vector   42  Occ=0.000000D+00  E= 6.132737D-01

 Vector   43  Occ=0.000000D+00  E= 6.194784D-01

 Vector   44  Occ=0.000000D+00  E= 6.415536D-01

 Vector   45  Occ=0.000000D+00  E= 6.462112D-01

 Vector   46  Occ=0.000000D+00  E= 6.632727D-01

 Vector   47  Occ=0.000000D+00  E= 6.918005D-01

 Vector   48  Occ=0.000000D+00  E= 7.465009D-01

 Vector   49  Occ=0.000000D+00  E= 8.154365D-01

 Vector   50  Occ=0.000000D+00  E= 8.566871D-01

 Vector   51  Occ=0.000000D+00  E= 8.944049D-01

 Vector   52  Occ=0.000000D+00  E= 9.119589D-01

 Vector   53  Occ=0.000000D+00  E= 1.515972D+00

 Vector   54  Occ=0.000000D+00  E= 1.598208D+00

 Vector   55  Occ=0.000000D+00  E= 1.599982D+00

 Vector   56  Occ=0.000000D+00  E= 1.640149D+00

 Vector   57  Occ=0.000000D+00  E= 1.650935D+00

 Vector   58  Occ=0.000000D+00  E= 1.651858D+00

 Vector   59  Occ=0.000000D+00  E= 1.700365D+00

 Vector   60  Occ=0.000000D+00  E= 1.748118D+00

 Vector   61  Occ=0.000000D+00  E= 1.762527D+00

 Vector   62  Occ=0.000000D+00  E= 1.825184D+00

 Vector   63  Occ=0.000000D+00  E= 1.906729D+00

 Vector   64  Occ=0.000000D+00  E= 2.058108D+00

 Vector   65  Occ=0.000000D+00  E= 2.282640D+00

 Vector   66  Occ=0.000000D+00  E= 2.307730D+00

 Vector   67  Occ=0.000000D+00  E= 2.446011D+00

 Vector   68  Occ=0.000000D+00  E= 2.466033D+00

 Vector   69  Occ=0.000000D+00  E= 2.475213D+00

 Vector   70  Occ=0.000000D+00  E= 2.487472D+00

 Vector   71  Occ=0.000000D+00  E= 2.491493D+00

 Vector   72  Occ=0.000000D+00  E= 2.603497D+00

 Vector   73  Occ=0.000000D+00  E= 2.701823D+00

 Vector   74  Occ=0.000000D+00  E= 2.882285D+00

 Vector   75  Occ=0.000000D+00  E= 2.966844D+00

 Vector   76  Occ=0.000000D+00  E= 2.976953D+00

 Vector   77  Occ=0.000000D+00  E= 1.170918D+01

 Vector   78  Occ=0.000000D+00  E= 1.188690D+01

 Vector   79  Occ=0.000000D+00  E= 1.190124D+01

 Vector   80  Occ=0.000000D+00  E= 1.213112D+01

 Vector   81  Occ=0.000000D+00  E= 6.266345D+01

 Vector   82  Occ=0.000000D+00  E= 6.283435D+01

 Vector   83  Occ=0.000000D+00  E= 6.285130D+01

 Vector   84  Occ=0.000000D+00  E= 6.308033D+01

     Multipole analysis of the density
     ---------------------------------

     L   x y z        total         alpha         beta         nuclear
     -   - - -        -----         -----         ----         -------
     0   0 0 0     -1.000000    -17.000000    -16.000000     32.000000

     1   1 0 0      0.221399      0.248496     -0.027097     -0.000000
     1   0 1 0      0.316682      0.355313     -0.038631     -0.000000
     1   0 0 1     -0.125950     -0.141333      0.015383     -0.000000

     2   2 0 0    -26.969824    -40.084654    -34.947307     48.062137
     2   1 1 0      1.104348     25.286639     23.796913    -47.979203
     2   1 0 1      3.400992     31.426981     28.420742    -56.446731
     2   0 2 0    -29.881603    -63.804609    -56.518327     90.441334
     2   0 1 1     -4.565217    -62.314575    -58.390323    116.139681

 Total times  cpu:      154.9s     wall:      162.7s
