 Output coordinates in angstroms (scale by  1.889725989 to convert to a.u.)

  No.       Tag          Charge          X              Y              Z
 ---- ---------------- ---------- -------------- -------------- --------------
    1 C                    6.0000    -0.58840700     0.68908573    -0.28219464
    2 C                    6.0000     0.23448237    -0.17826608    -0.90215080
    3 H                    1.0000    -1.15509039     1.38648161    -0.91000124
    4 C                    6.0000    -0.83301387     0.82390645     1.19649085
    5 H                    1.0000     0.28660177    -0.13315885    -1.99617214
    6 C                    6.0000     1.11055643    -1.22446609    -0.26774312
    7 H                    1.0000    -0.24823983     0.11011743     1.79122587
    8 H                    1.0000    -1.89805859     0.66613611     1.43556382
    9 H                    1.0000    -0.57998161     1.83862330     1.54675577
   10 H                    1.0000     0.85183963    -2.23122935    -0.63631517
   11 H                    1.0000     1.03088578    -1.23926352     0.82706518
   12 H                    1.0000     2.17033559    -1.05926679    -0.52453570

         Total DFT energy =     -156.920484742080

                    DFT Final Alpha Molecular Orbital Analysis
                    ------------------------------------------

 Vector    1  Occ=1.000000D+00  E=-9.695540D+00

 Vector    5  Occ=1.000000D+00  E=-5.256622D-01

 Vector    6  Occ=1.000000D+00  E=-4.646186D-01

 Vector    7  Occ=1.000000D+00  E=-4.003964D-01

 Vector    8  Occ=1.000000D+00  E=-2.791294D-01

 Vector    9  Occ=1.000000D+00  E=-2.381250D-01

 Vector   10  Occ=1.000000D+00  E=-1.832913D-01

 Vector   11  Occ=1.000000D+00  E=-1.791035D-01

 Vector   12  Occ=1.000000D+00  E=-1.700509D-01

 Vector   13  Occ=1.000000D+00  E=-1.538012D-01

 Vector   14  Occ=1.000000D+00  E=-1.286920D-01

 Vector   15  Occ=1.000000D+00  E=-1.013463D-01

 Vector   16  Occ=1.000000D+00  E=-1.007032D-02

 Vector   17  Occ=0.000000D+00  E= 1.836536D-01

 Vector   18  Occ=0.000000D+00  E= 1.908335D-01

 Vector   19  Occ=0.000000D+00  E= 2.083858D-01

 Vector   20  Occ=0.000000D+00  E= 2.148635D-01

 Vector   21  Occ=0.000000D+00  E= 2.514855D-01

 Vector   22  Occ=0.000000D+00  E= 2.538257D-01

 Vector   23  Occ=0.000000D+00  E= 2.584191D-01

 Vector   24  Occ=0.000000D+00  E= 2.649844D-01

 Vector   25  Occ=0.000000D+00  E= 3.004465D-01

 Vector   26  Occ=0.000000D+00  E= 3.066561D-01

 Vector   27  Occ=0.000000D+00  E= 3.435561D-01

 Vector   28  Occ=0.000000D+00  E= 3.537408D-01

 Vector   29  Occ=0.000000D+00  E= 3.628117D-01

 Vector   30  Occ=0.000000D+00  E= 3.946750D-01

 Vector   31  Occ=0.000000D+00  E= 4.172791D-01

 Vector   32  Occ=0.000000D+00  E= 4.232478D-01

 Vector   33  Occ=0.000000D+00  E= 4.497211D-01

 Vector   34  Occ=0.000000D+00  E= 4.848402D-01

 Vector   35  Occ=0.000000D+00  E= 4.911119D-01

 Vector   36  Occ=0.000000D+00  E= 5.176900D-01

 Vector   37  Occ=0.000000D+00  E= 5.197713D-01

 Vector   38  Occ=0.000000D+00  E= 5.629559D-01

 Vector   39  Occ=0.000000D+00  E= 5.670779D-01

 Vector   40  Occ=0.000000D+00  E= 5.891958D-01

 Vector   41  Occ=0.000000D+00  E= 6.005488D-01

 Vector   42  Occ=0.000000D+00  E= 6.049094D-01

 Vector   43  Occ=0.000000D+00  E= 6.128213D-01

 Vector   44  Occ=0.000000D+00  E= 6.304514D-01

 Vector   45  Occ=0.000000D+00  E= 6.414203D-01

 Vector   46  Occ=0.000000D+00  E= 6.722591D-01

 Vector   47  Occ=0.000000D+00  E= 6.818377D-01

 Vector   48  Occ=0.000000D+00  E= 7.216240D-01

 Vector   49  Occ=0.000000D+00  E= 8.002907D-01

 Vector   50  Occ=0.000000D+00  E= 8.431903D-01

 Vector   51  Occ=0.000000D+00  E= 8.894445D-01

 Vector   52  Occ=0.000000D+00  E= 9.166268D-01

 Vector   53  Occ=0.000000D+00  E= 1.520677D+00

 Vector   54  Occ=0.000000D+00  E= 1.579156D+00

 Vector   55  Occ=0.000000D+00  E= 1.610219D+00

 Vector   56  Occ=0.000000D+00  E= 1.610877D+00

 Vector   57  Occ=0.000000D+00  E= 1.635203D+00

 Vector   58  Occ=0.000000D+00  E= 1.657720D+00

 Vector   59  Occ=0.000000D+00  E= 1.669934D+00

 Vector   60  Occ=0.000000D+00  E= 1.749414D+00

 Vector   61  Occ=0.000000D+00  E= 1.753199D+00

 Vector   62  Occ=0.000000D+00  E= 1.790599D+00

 Vector   63  Occ=0.000000D+00  E= 1.917684D+00

 Vector   64  Occ=0.000000D+00  E= 1.995667D+00

 Vector   65  Occ=0.000000D+00  E= 2.245864D+00

 Vector   66  Occ=0.000000D+00  E= 2.332960D+00

 Vector   67  Occ=0.000000D+00  E= 2.440044D+00

 Vector   68  Occ=0.000000D+00  E= 2.460864D+00

 Vector   69  Occ=0.000000D+00  E= 2.479079D+00

 Vector   70  Occ=0.000000D+00  E= 2.489032D+00

 Vector   71  Occ=0.000000D+00  E= 2.513392D+00

 Vector   72  Occ=0.000000D+00  E= 2.603397D+00

 Vector   73  Occ=0.000000D+00  E= 2.665157D+00

 Vector   74  Occ=0.000000D+00  E= 2.886433D+00

 Vector   75  Occ=0.000000D+00  E= 2.887490D+00

 Vector   76  Occ=0.000000D+00  E= 3.033202D+00

 Vector   77  Occ=0.000000D+00  E= 1.168176D+01

 Vector   78  Occ=0.000000D+00  E= 1.186400D+01

 Vector   79  Occ=0.000000D+00  E= 1.191769D+01

 Vector   80  Occ=0.000000D+00  E= 1.209632D+01

 Vector   81  Occ=0.000000D+00  E= 6.263547D+01

 Vector   82  Occ=0.000000D+00  E= 6.281190D+01

 Vector   83  Occ=0.000000D+00  E= 6.286979D+01

 Vector   84  Occ=0.000000D+00  E= 6.304540D+01

     Multipole analysis of the density
     ---------------------------------

     L   x y z        total         alpha         beta         nuclear
     -   - - -        -----         -----         ----         -------
     0   0 0 0     -1.000000    -17.000000    -16.000000     32.000000

     1   1 0 0     -0.039312     -0.052270      0.012958      0.000000
     1   0 1 0      0.056746      0.075478     -0.018732     -0.000000
     1   0 0 1     -0.131612     -0.174983      0.043371      0.000000

     2   2 0 0    -33.386253    -68.950898    -56.877462     92.442107
     2   1 1 0      3.521592     47.416840     43.365353    -87.260602
     2   1 0 1      3.233858     25.602479     22.100167    -44.468788
     2   0 2 0    -29.924278    -71.590458    -63.755952    105.422132
     2   0 1 1     -2.033820    -22.743606    -20.828852     41.538637

 Total times  cpu:      198.2s     wall:      206.9s
