 Output coordinates in angstroms (scale by  1.889725989 to convert to a.u.)

  No.       Tag          Charge          X              Y              Z
 ---- ---------------- ---------- -------------- -------------- --------------
    1 C                    6.0000    -0.59951542     0.80255290    -0.45086700
    2 C                    6.0000     0.14730898    -0.12593532    -1.07900314
    3 H                    1.0000    -1.14306562     1.52624786    -1.07136544
    4 C                    6.0000    -0.81485580     0.96357688     1.03284389
    5 H                    1.0000     0.18365486    -0.09619679    -2.17537706
    6 C                    6.0000     0.98493478    -1.21298255    -0.45422950
    7 H                    1.0000    -0.16330706     0.28229710     1.60062608
    8 C                    6.0000    -2.28520694     0.72831045     1.43924501
    9 H                    1.0000    -0.52461462     1.98779524     1.32934551
   10 H                    1.0000     0.65689280    -2.19164826    -0.84908226
   11 H                    1.0000     0.82891853    -1.25237448     0.63440293
   12 C                    6.0000     2.48886326    -1.03724383    -0.75344393
   13 H                    1.0000    -2.59253338    -0.30192419     1.20706133
   14 H                    1.0000    -2.95897360     1.40842205     0.89538071
   15 H                    1.0000    -2.43076033     0.89763007     2.51673434
   16 H                    1.0000     2.67514939    -1.00996138    -1.83828541
   17 H                    1.0000     3.07692345    -1.86517979    -0.32973242
   18 H                    1.0000     2.86254233    -0.09477864    -0.32698040

         Total DFT energy =     -235.463592627942

                    DFT Final Alpha Molecular Orbital Analysis
                    ------------------------------------------

 Vector    1  Occ=1.000000D+00  E=-9.722581D+00

 Vector   47  Occ=0.000000D+00  E= 4.093002D-01

 Vector   48  Occ=0.000000D+00  E= 4.372904D-01

 Vector   49  Occ=0.000000D+00  E= 4.406653D-01

 Vector   50  Occ=0.000000D+00  E= 4.635411D-01

 Vector   51  Occ=0.000000D+00  E= 4.936001D-01

 Vector   52  Occ=0.000000D+00  E= 5.179490D-01

 Vector   53  Occ=0.000000D+00  E= 5.196431D-01

 Vector   54  Occ=0.000000D+00  E= 5.327205D-01

 Vector   55  Occ=0.000000D+00  E= 5.440999D-01

 Vector   56  Occ=0.000000D+00  E= 5.448790D-01

 Vector   57  Occ=0.000000D+00  E= 5.495636D-01

 Vector   58  Occ=0.000000D+00  E= 5.628952D-01

 Vector   59  Occ=0.000000D+00  E= 5.647622D-01

 Vector   60  Occ=0.000000D+00  E= 5.747700D-01

 Vector   61  Occ=0.000000D+00  E= 5.848606D-01

 Vector   62  Occ=0.000000D+00  E= 5.877169D-01

 Vector   63  Occ=0.000000D+00  E= 6.009625D-01

 Vector   64  Occ=0.000000D+00  E= 6.138802D-01

 Vector   65  Occ=0.000000D+00  E= 6.248313D-01

 Vector   66  Occ=0.000000D+00  E= 6.305868D-01

 Vector   67  Occ=0.000000D+00  E= 6.437539D-01

 Vector   68  Occ=0.000000D+00  E= 6.452967D-01

 Vector   69  Occ=0.000000D+00  E= 6.681334D-01

 Vector   70  Occ=0.000000D+00  E= 6.813456D-01

 Vector   71  Occ=0.000000D+00  E= 7.044022D-01

 Vector   72  Occ=0.000000D+00  E= 7.271048D-01

 Vector   73  Occ=0.000000D+00  E= 7.836795D-01

 Vector   74  Occ=0.000000D+00  E= 8.182381D-01

 Vector   75  Occ=0.000000D+00  E= 8.459095D-01

 Vector   76  Occ=0.000000D+00  E= 8.832449D-01

 Vector   77  Occ=0.000000D+00  E= 9.410342D-01

 Vector   78  Occ=0.000000D+00  E= 9.589797D-01

 Vector   79  Occ=0.000000D+00  E= 1.540701D+00

 Vector   80  Occ=0.000000D+00  E= 1.557702D+00

 Vector   81  Occ=0.000000D+00  E= 1.575139D+00

 Vector   82  Occ=0.000000D+00  E= 1.597167D+00

 Vector   83  Occ=0.000000D+00  E= 1.606134D+00

 Vector   84  Occ=0.000000D+00  E= 1.607703D+00

 Vector   85  Occ=0.000000D+00  E= 1.624310D+00

 Vector   86  Occ=0.000000D+00  E= 1.629964D+00

 Vector   87  Occ=0.000000D+00  E= 1.670494D+00

 Vector   88  Occ=0.000000D+00  E= 1.686344D+00

 Vector   89  Occ=0.000000D+00  E= 1.714405D+00

 Vector   90  Occ=0.000000D+00  E= 1.733239D+00

 Vector   91  Occ=0.000000D+00  E= 1.780876D+00

 Vector   92  Occ=0.000000D+00  E= 1.793104D+00

 Vector   93  Occ=0.000000D+00  E= 1.856459D+00

 Vector   94  Occ=0.000000D+00  E= 1.898975D+00

 Vector   95  Occ=0.000000D+00  E= 1.981261D+00

 Vector   96  Occ=0.000000D+00  E= 2.003096D+00

 Vector   97  Occ=0.000000D+00  E= 2.267690D+00

 Vector   98  Occ=0.000000D+00  E= 2.274818D+00

 Vector   99  Occ=0.000000D+00  E= 2.324202D+00

 Vector  100  Occ=0.000000D+00  E= 2.388276D+00

 Vector  101  Occ=0.000000D+00  E= 2.451916D+00

 Vector  102  Occ=0.000000D+00  E= 2.452011D+00

 Vector  103  Occ=0.000000D+00  E= 2.469986D+00

 Vector  104  Occ=0.000000D+00  E= 2.480979D+00

 Vector  105  Occ=0.000000D+00  E= 2.506949D+00

 Vector  106  Occ=0.000000D+00  E= 2.561768D+00

 Vector  107  Occ=0.000000D+00  E= 2.566078D+00

 Vector  108  Occ=0.000000D+00  E= 2.646531D+00

 Vector  109  Occ=0.000000D+00  E= 2.765533D+00

 Vector  110  Occ=0.000000D+00  E= 2.831998D+00

 Vector  111  Occ=0.000000D+00  E= 2.851020D+00

 Vector  112  Occ=0.000000D+00  E= 2.943730D+00

 Vector  113  Occ=0.000000D+00  E= 2.948451D+00

 Vector  114  Occ=0.000000D+00  E= 3.031699D+00

 Vector  115  Occ=0.000000D+00  E= 1.172025D+01

 Vector  116  Occ=0.000000D+00  E= 1.184177D+01

 Vector  117  Occ=0.000000D+00  E= 1.185820D+01

 Vector  118  Occ=0.000000D+00  E= 1.188690D+01

 Vector  119  Occ=0.000000D+00  E= 1.195671D+01

 Vector  120  Occ=0.000000D+00  E= 1.214184D+01

 Vector  121  Occ=0.000000D+00  E= 6.267573D+01

 Vector  122  Occ=0.000000D+00  E= 6.278968D+01

 Vector  123  Occ=0.000000D+00  E= 6.280391D+01

 Vector  124  Occ=0.000000D+00  E= 6.283263D+01

 Vector  125  Occ=0.000000D+00  E= 6.290501D+01

 Vector  126  Occ=0.000000D+00  E= 6.309273D+01

     Multipole analysis of the density
     ---------------------------------

     L   x y z        total         alpha         beta         nuclear
     -   - - -        -----         -----         ----         -------
     0   0 0 0     -1.000000    -25.000000    -24.000000     48.000000

     1   1 0 0     -0.034140     -0.036646      0.002506      0.000000
     1   0 1 0      0.056632      0.061319     -0.004687     -0.000000
     1   0 0 1     -0.126939     -0.136699      0.009760     -0.000000

     2   2 0 0    -49.823739   -263.744539   -248.728830    462.649630
     2   1 1 0      6.235920    113.365987    106.993212   -214.123279
     2   1 0 1      6.104710    107.436086    102.152090   -203.483467
     2   0 2 0    -41.705684   -111.690525   -101.877400    171.862241
     2   0 1 1     -3.240383    -51.982882    -48.722117     97.464616

 Total times  cpu:      131.6s     wall:      134.5s
