 Output coordinates in angstroms (scale by  1.889725989 to convert to a.u.)

  No.       Tag          Charge          X              Y              Z
 ---- ---------------- ---------- -------------- -------------- --------------
    1 C                    6.0000    -0.42652649     0.22027403     0.46991877
    2 C                    6.0000     0.42652213    -0.22026973    -0.46992663
    3 H                    1.0000    -0.51899301     1.30267594     0.63576438
    4 C                    6.0000    -1.30998561    -0.65127726     1.32484504
    5 C                    6.0000     1.30998859     0.65128282    -1.32484446
    6 H                    1.0000     0.51899042    -1.30267212    -0.63576792
    7 H                    1.0000    -1.10348887    -1.71196874     1.10553476
    8 C                    6.0000    -2.81075841    -0.35823353     1.12121296
    9 H                    1.0000    -1.06025319    -0.49723646     2.39071501
   10 H                    1.0000    -3.10663368    -0.54949836     0.07922274
   11 H                    1.0000    -3.04228590     0.69430577     1.34728322
   12 H                    1.0000    -3.43033768    -0.98831887     1.77684293
   13 H                    1.0000     1.10349559     1.71197461    -1.10553812
   14 H                    1.0000     1.06026037     0.49723959    -2.39071619
   15 C                    6.0000     2.81075825     0.35822549    -1.12120882
   16 H                    1.0000     3.10663119     0.54950226    -0.07921898
   17 H                    1.0000     3.43034587     0.98830276    -1.77683909
   18 H                    1.0000     3.04227823    -0.69431724    -1.34726413

         Total DFT energy =     -235.463658700150

                    DFT Final Alpha Molecular Orbital Analysis
                    ------------------------------------------

 Vector    1  Occ=1.000000D+00  E=-9.725532D+00

 Vector   47  Occ=0.000000D+00  E= 4.094659D-01

 Vector   48  Occ=0.000000D+00  E= 4.210203D-01

 Vector   49  Occ=0.000000D+00  E= 4.293485D-01

 Vector   50  Occ=0.000000D+00  E= 4.536518D-01

 Vector   51  Occ=0.000000D+00  E= 4.956929D-01

 Vector   52  Occ=0.000000D+00  E= 5.225972D-01

 Vector   53  Occ=0.000000D+00  E= 5.233942D-01

 Vector   54  Occ=0.000000D+00  E= 5.353463D-01

 Vector   55  Occ=0.000000D+00  E= 5.400729D-01

 Vector   56  Occ=0.000000D+00  E= 5.433646D-01

 Vector   57  Occ=0.000000D+00  E= 5.507941D-01

 Vector   58  Occ=0.000000D+00  E= 5.578722D-01

 Vector   59  Occ=0.000000D+00  E= 5.680465D-01

 Vector   60  Occ=0.000000D+00  E= 5.713689D-01

 Vector   61  Occ=0.000000D+00  E= 5.886111D-01

 Vector   62  Occ=0.000000D+00  E= 5.980157D-01

 Vector   63  Occ=0.000000D+00  E= 5.982235D-01

 Vector   64  Occ=0.000000D+00  E= 6.097486D-01

 Vector   65  Occ=0.000000D+00  E= 6.251583D-01

 Vector   66  Occ=0.000000D+00  E= 6.320813D-01

 Vector   67  Occ=0.000000D+00  E= 6.384981D-01

 Vector   68  Occ=0.000000D+00  E= 6.412806D-01

 Vector   69  Occ=0.000000D+00  E= 6.437353D-01

 Vector   70  Occ=0.000000D+00  E= 6.567674D-01

 Vector   71  Occ=0.000000D+00  E= 7.053304D-01

 Vector   72  Occ=0.000000D+00  E= 7.316485D-01

 Vector   73  Occ=0.000000D+00  E= 7.816264D-01

 Vector   74  Occ=0.000000D+00  E= 8.092352D-01

 Vector   75  Occ=0.000000D+00  E= 8.610430D-01

 Vector   76  Occ=0.000000D+00  E= 8.766166D-01

 Vector   77  Occ=0.000000D+00  E= 9.441816D-01

 Vector   78  Occ=0.000000D+00  E= 9.499000D-01

 Vector   79  Occ=0.000000D+00  E= 1.539198D+00

 Vector   80  Occ=0.000000D+00  E= 1.558430D+00

 Vector   81  Occ=0.000000D+00  E= 1.580115D+00

 Vector   82  Occ=0.000000D+00  E= 1.586938D+00

 Vector   83  Occ=0.000000D+00  E= 1.601477D+00

 Vector   84  Occ=0.000000D+00  E= 1.604395D+00

 Vector   85  Occ=0.000000D+00  E= 1.617374D+00

 Vector   86  Occ=0.000000D+00  E= 1.631137D+00

 Vector   87  Occ=0.000000D+00  E= 1.637024D+00

 Vector   88  Occ=0.000000D+00  E= 1.681155D+00

 Vector   89  Occ=0.000000D+00  E= 1.700738D+00

 Vector   90  Occ=0.000000D+00  E= 1.740470D+00

 Vector   91  Occ=0.000000D+00  E= 1.761175D+00

 Vector   92  Occ=0.000000D+00  E= 1.814202D+00

 Vector   93  Occ=0.000000D+00  E= 1.840262D+00

 Vector   94  Occ=0.000000D+00  E= 1.923483D+00

 Vector   95  Occ=0.000000D+00  E= 1.925587D+00

 Vector   96  Occ=0.000000D+00  E= 2.086470D+00

 Vector   97  Occ=0.000000D+00  E= 2.259879D+00

 Vector   98  Occ=0.000000D+00  E= 2.277964D+00

 Vector   99  Occ=0.000000D+00  E= 2.337935D+00

 Vector  100  Occ=0.000000D+00  E= 2.366082D+00

 Vector  101  Occ=0.000000D+00  E= 2.443110D+00

 Vector  102  Occ=0.000000D+00  E= 2.444300D+00

 Vector  103  Occ=0.000000D+00  E= 2.457869D+00

 Vector  104  Occ=0.000000D+00  E= 2.471428D+00

 Vector  105  Occ=0.000000D+00  E= 2.481556D+00

 Vector  106  Occ=0.000000D+00  E= 2.526753D+00

 Vector  107  Occ=0.000000D+00  E= 2.569707D+00

 Vector  108  Occ=0.000000D+00  E= 2.615862D+00

 Vector  109  Occ=0.000000D+00  E= 2.777171D+00

 Vector  110  Occ=0.000000D+00  E= 2.832164D+00

 Vector  111  Occ=0.000000D+00  E= 2.855245D+00

 Vector  112  Occ=0.000000D+00  E= 2.912262D+00

 Vector  113  Occ=0.000000D+00  E= 2.992943D+00

 Vector  114  Occ=0.000000D+00  E= 2.998614D+00

 Vector  115  Occ=0.000000D+00  E= 1.172487D+01

 Vector  116  Occ=0.000000D+00  E= 1.183879D+01

 Vector  117  Occ=0.000000D+00  E= 1.185926D+01

 Vector  118  Occ=0.000000D+00  E= 1.191875D+01

 Vector  119  Occ=0.000000D+00  E= 1.192067D+01

 Vector  120  Occ=0.000000D+00  E= 1.214296D+01

 Vector  121  Occ=0.000000D+00  E= 6.268035D+01

 Vector  122  Occ=0.000000D+00  E= 6.278717D+01

 Vector  123  Occ=0.000000D+00  E= 6.280633D+01

 Vector  124  Occ=0.000000D+00  E= 6.286330D+01

 Vector  125  Occ=0.000000D+00  E= 6.286919D+01

 Vector  126  Occ=0.000000D+00  E= 6.309395D+01

     Multipole analysis of the density
     ---------------------------------

     L   x y z        total         alpha         beta         nuclear
     -   - - -        -----         -----         ----         -------
     0   0 0 0     -1.000000    -25.000000    -24.000000     48.000000

     1   1 0 0      0.000005      0.000004      0.000001     -0.000000
     1   0 1 0      0.000003      0.000004     -0.000001     -0.000000
     1   0 0 1     -0.000003     -0.000003      0.000000      0.000000

     2   2 0 0    -56.530815   -367.662001   -346.481674    657.612860
     2   1 1 0     -3.794834    -58.386353    -54.840180    109.431699
     2   1 0 1     10.242483    171.058882    160.931098   -321.747497
     2   0 2 0    -36.335245    -57.018977    -52.465323     73.149055
     2   0 1 1      3.486922     39.229692     36.273393    -72.016163

 Total times  cpu:      128.9s     wall:      131.7s
