 Output coordinates in angstroms (scale by  1.889725989 to convert to a.u.)

  No.       Tag          Charge          X              Y              Z
 ---- ---------------- ---------- -------------- -------------- --------------
    1 C                    6.0000     0.11076816    -0.03318837    -0.04260944
    2 C                    6.0000     1.31972401    -0.39528439    -0.50818115
    3 C                    6.0000    -1.14609004    -0.16925047    -0.87118272
    4 C                    6.0000    -0.08170496     0.53700138     1.34396057
    5 H                    1.0000     1.44804850    -0.80632218    -1.51155811
    6 H                    1.0000     2.22189103    -0.29290471     0.09827535
    7 H                    1.0000    -0.93533527    -0.58903338    -1.86383561
    8 H                    1.0000    -1.63646062     0.80948984    -1.00771351
    9 H                    1.0000    -1.88058607    -0.82189755    -0.36959869
   10 H                    1.0000     0.86851227     0.60861333     1.88981206
   11 H                    1.0000    -0.77265462    -0.08773246     1.93500258
   12 H                    1.0000    -0.52959836     1.54411806     1.29769229

         Total DFT energy =     -156.929922073209

                    DFT Final Alpha Molecular Orbital Analysis
                    ------------------------------------------

 Vector    1  Occ=1.000000D+00  E=-9.693899D+00

 Vector    5  Occ=1.000000D+00  E=-5.238976D-01

 Vector    6  Occ=1.000000D+00  E=-4.356739D-01

 Vector    7  Occ=1.000000D+00  E=-4.081043D-01

 Vector    8  Occ=1.000000D+00  E=-2.672879D-01

 Vector    9  Occ=1.000000D+00  E=-2.053711D-01

 Vector   10  Occ=1.000000D+00  E=-2.021221D-01

 Vector   11  Occ=1.000000D+00  E=-1.901750D-01

 Vector   12  Occ=1.000000D+00  E=-1.522262D-01

 Vector   13  Occ=1.000000D+00  E=-1.361111D-01

 Vector   14  Occ=1.000000D+00  E=-1.228392D-01

 Vector   15  Occ=1.000000D+00  E=-9.853702D-02

 Vector   16  Occ=1.000000D+00  E= 3.891237D-03

 Vector   17  Occ=0.000000D+00  E= 1.825634D-01

 Vector   18  Occ=0.000000D+00  E= 1.975024D-01

 Vector   19  Occ=0.000000D+00  E= 2.231107D-01

 Vector   20  Occ=0.000000D+00  E= 2.304941D-01

 Vector   21  Occ=0.000000D+00  E= 2.428302D-01

 Vector   22  Occ=0.000000D+00  E= 2.568502D-01

 Vector   23  Occ=0.000000D+00  E= 2.634045D-01

 Vector   24  Occ=0.000000D+00  E= 2.909481D-01

 Vector   25  Occ=0.000000D+00  E= 2.910668D-01

 Vector   26  Occ=0.000000D+00  E= 3.064208D-01

 Vector   27  Occ=0.000000D+00  E= 3.423345D-01

 Vector   28  Occ=0.000000D+00  E= 3.459812D-01

 Vector   29  Occ=0.000000D+00  E= 3.649586D-01

 Vector   30  Occ=0.000000D+00  E= 3.800248D-01

 Vector   31  Occ=0.000000D+00  E= 4.012481D-01

 Vector   32  Occ=0.000000D+00  E= 4.760811D-01

 Vector   33  Occ=0.000000D+00  E= 4.786631D-01

 Vector   34  Occ=0.000000D+00  E= 4.831710D-01

 Vector   35  Occ=0.000000D+00  E= 4.851081D-01

 Vector   36  Occ=0.000000D+00  E= 5.023211D-01

 Vector   37  Occ=0.000000D+00  E= 5.225498D-01

 Vector   38  Occ=0.000000D+00  E= 5.643841D-01

 Vector   39  Occ=0.000000D+00  E= 5.787476D-01

 Vector   40  Occ=0.000000D+00  E= 6.070693D-01

 Vector   41  Occ=0.000000D+00  E= 6.076557D-01

 Vector   42  Occ=0.000000D+00  E= 6.219356D-01

 Vector   43  Occ=0.000000D+00  E= 6.282971D-01

 Vector   44  Occ=0.000000D+00  E= 6.432604D-01

 Vector   45  Occ=0.000000D+00  E= 6.462432D-01

 Vector   46  Occ=0.000000D+00  E= 6.754313D-01

 Vector   47  Occ=0.000000D+00  E= 6.978148D-01

 Vector   48  Occ=0.000000D+00  E= 7.397140D-01

 Vector   49  Occ=0.000000D+00  E= 8.191149D-01

 Vector   50  Occ=0.000000D+00  E= 8.266308D-01

 Vector   51  Occ=0.000000D+00  E= 8.755867D-01

 Vector   52  Occ=0.000000D+00  E= 9.962699D-01

 Vector   53  Occ=0.000000D+00  E= 1.513738D+00

 Vector   54  Occ=0.000000D+00  E= 1.598916D+00

 Vector   55  Occ=0.000000D+00  E= 1.620963D+00

 Vector   56  Occ=0.000000D+00  E= 1.637407D+00

 Vector   57  Occ=0.000000D+00  E= 1.646029D+00

 Vector   58  Occ=0.000000D+00  E= 1.646932D+00

 Vector   59  Occ=0.000000D+00  E= 1.678936D+00

 Vector   60  Occ=0.000000D+00  E= 1.742839D+00

 Vector   61  Occ=0.000000D+00  E= 1.781837D+00

 Vector   62  Occ=0.000000D+00  E= 1.847756D+00

 Vector   63  Occ=0.000000D+00  E= 1.955882D+00

 Vector   64  Occ=0.000000D+00  E= 2.060361D+00

 Vector   65  Occ=0.000000D+00  E= 2.269351D+00

 Vector   66  Occ=0.000000D+00  E= 2.363691D+00

 Vector   67  Occ=0.000000D+00  E= 2.380861D+00

 Vector   68  Occ=0.000000D+00  E= 2.470178D+00

 Vector   69  Occ=0.000000D+00  E= 2.490415D+00

 Vector   70  Occ=0.000000D+00  E= 2.522328D+00

 Vector   71  Occ=0.000000D+00  E= 2.524250D+00

 Vector   72  Occ=0.000000D+00  E= 2.620147D+00

 Vector   73  Occ=0.000000D+00  E= 2.666122D+00

 Vector   74  Occ=0.000000D+00  E= 2.882184D+00

 Vector   75  Occ=0.000000D+00  E= 2.955839D+00

 Vector   76  Occ=0.000000D+00  E= 3.085178D+00

 Vector   77  Occ=0.000000D+00  E= 1.169670D+01

 Vector   78  Occ=0.000000D+00  E= 1.188248D+01

 Vector   79  Occ=0.000000D+00  E= 1.193486D+01

 Vector   80  Occ=0.000000D+00  E= 1.208455D+01

 Vector   81  Occ=0.000000D+00  E= 6.265081D+01

 Vector   82  Occ=0.000000D+00  E= 6.283495D+01

 Vector   83  Occ=0.000000D+00  E= 6.288333D+01

 Vector   84  Occ=0.000000D+00  E= 6.303154D+01

     Multipole analysis of the density
     ---------------------------------

     L   x y z        total         alpha         beta         nuclear
     -   - - -        -----         -----         ----         -------
     0   0 0 0     -1.000000    -17.000000    -16.000000     32.000000

     1   1 0 0     -0.198080     -0.087287     -0.110793     -0.000000
     1   0 1 0     -0.638033     -0.756504      0.118471      0.000000
     1   0 0 1      0.298667      0.283177      0.015490      0.000000

     2   2 0 0    -31.068579    -80.821862    -72.376122    122.129405
     2   1 1 0      2.513497      8.983451      6.097836    -12.567790
     2   1 0 1      0.301295     -4.898942     -4.997247     10.197484
     2   0 2 0    -29.436735    -32.636856    -25.448066     28.648187
     2   0 1 1     -0.994463    -21.029874    -19.920483     39.955894

 Total times  cpu:      157.9s     wall:      163.9s
