 Output coordinates in angstroms (scale by  1.889725989 to convert to a.u.)

  No.       Tag          Charge          X              Y              Z
 ---- ---------------- ---------- -------------- -------------- --------------
    1 C                    6.0000     0.61546000     1.06018640    -0.10028699
    2 C                    6.0000     1.75640912     0.63063739    -0.66249936
    3 H                    1.0000     0.37301903     2.12924042    -0.14638717
    4 C                    6.0000    -0.40017185     0.22125248     0.58785931
    5 H                    1.0000     2.43441174     1.31670018    -1.17223681
    6 H                    1.0000     2.05826837    -0.41837068    -0.63063593
    7 C                    6.0000    -0.42779126    -1.29624561     0.46359400
    8 C                    6.0000    -1.50698920    -0.47297638    -0.22909987
    9 H                    1.0000    -0.73856893     0.62383387     1.54613811
   10 H                    1.0000    -1.44779451    -0.37778950    -1.31246928
   11 H                    1.0000    -2.51712340    -0.48299086     0.17852655
   12 H                    1.0000    -0.70417372    -1.87250433     1.34530863
   13 H                    1.0000     0.32046070    -1.77524483    -0.16564681

         Total DFT energy =     -194.958770886832

                    DFT Final Alpha Molecular Orbital Analysis
                    ------------------------------------------

 Vector    1  Occ=1.000000D+00  E=-9.721591D+00

 Vector   20  Occ=0.000000D+00  E= 1.863405D-01

 Vector   21  Occ=0.000000D+00  E= 1.959850D-01

 Vector   22  Occ=0.000000D+00  E= 2.020705D-01

 Vector   23  Occ=0.000000D+00  E= 2.133205D-01

 Vector   24  Occ=0.000000D+00  E= 2.200592D-01

 Vector   25  Occ=0.000000D+00  E= 2.472837D-01

 Vector   26  Occ=0.000000D+00  E= 2.584777D-01

 Vector   27  Occ=0.000000D+00  E= 2.688680D-01

 Vector   28  Occ=0.000000D+00  E= 2.747442D-01

 Vector   29  Occ=0.000000D+00  E= 2.994643D-01

 Vector   30  Occ=0.000000D+00  E= 3.099135D-01

 Vector   31  Occ=0.000000D+00  E= 3.234989D-01

 Vector   32  Occ=0.000000D+00  E= 3.349903D-01

 Vector   33  Occ=0.000000D+00  E= 3.534737D-01

 Vector   34  Occ=0.000000D+00  E= 3.949601D-01

 Vector   35  Occ=0.000000D+00  E= 4.013944D-01

 Vector   36  Occ=0.000000D+00  E= 4.160561D-01

 Vector   37  Occ=0.000000D+00  E= 4.350082D-01

 Vector   38  Occ=0.000000D+00  E= 4.451075D-01

 Vector   39  Occ=0.000000D+00  E= 4.804780D-01

 Vector   40  Occ=0.000000D+00  E= 4.910347D-01

 Vector   41  Occ=0.000000D+00  E= 5.139628D-01

 Vector   42  Occ=0.000000D+00  E= 5.227842D-01

 Vector   43  Occ=0.000000D+00  E= 5.353861D-01

 Vector   44  Occ=0.000000D+00  E= 5.410348D-01

 Vector   45  Occ=0.000000D+00  E= 5.525550D-01

 Vector   46  Occ=0.000000D+00  E= 5.628989D-01

 Vector   47  Occ=0.000000D+00  E= 5.839943D-01

 Vector   48  Occ=0.000000D+00  E= 5.897125D-01

 Vector   49  Occ=0.000000D+00  E= 6.174273D-01

 Vector   50  Occ=0.000000D+00  E= 6.281850D-01

 Vector   51  Occ=0.000000D+00  E= 6.362067D-01

 Vector   52  Occ=0.000000D+00  E= 6.381649D-01

 Vector   53  Occ=0.000000D+00  E= 6.656835D-01

 Vector   54  Occ=0.000000D+00  E= 6.875767D-01

 Vector   55  Occ=0.000000D+00  E= 7.091132D-01

 Vector   56  Occ=0.000000D+00  E= 7.880297D-01

 Vector   57  Occ=0.000000D+00  E= 7.974358D-01

 Vector   58  Occ=0.000000D+00  E= 8.074510D-01

 Vector   59  Occ=0.000000D+00  E= 8.384264D-01

 Vector   60  Occ=0.000000D+00  E= 8.688587D-01

 Vector   61  Occ=0.000000D+00  E= 9.067298D-01

 Vector   62  Occ=0.000000D+00  E= 1.537270D+00

 Vector   63  Occ=0.000000D+00  E= 1.555407D+00

 Vector   64  Occ=0.000000D+00  E= 1.593980D+00

 Vector   65  Occ=0.000000D+00  E= 1.618191D+00

 Vector   66  Occ=0.000000D+00  E= 1.638938D+00

 Vector   67  Occ=0.000000D+00  E= 1.662486D+00

 Vector   68  Occ=0.000000D+00  E= 1.671763D+00

 Vector   69  Occ=0.000000D+00  E= 1.698495D+00

 Vector   70  Occ=0.000000D+00  E= 1.734447D+00

 Vector   71  Occ=0.000000D+00  E= 1.757161D+00

 Vector   72  Occ=0.000000D+00  E= 1.789425D+00

 Vector   73  Occ=0.000000D+00  E= 1.841493D+00

 Vector   74  Occ=0.000000D+00  E= 1.871826D+00

 Vector   75  Occ=0.000000D+00  E= 1.953612D+00

 Vector   76  Occ=0.000000D+00  E= 2.025555D+00

 Vector   77  Occ=0.000000D+00  E= 2.304108D+00

 Vector   78  Occ=0.000000D+00  E= 2.340769D+00

 Vector   79  Occ=0.000000D+00  E= 2.383425D+00

 Vector   80  Occ=0.000000D+00  E= 2.483007D+00

 Vector   81  Occ=0.000000D+00  E= 2.488664D+00

 Vector   82  Occ=0.000000D+00  E= 2.504549D+00

 Vector   83  Occ=0.000000D+00  E= 2.600953D+00

 Vector   84  Occ=0.000000D+00  E= 2.658367D+00

 Vector   85  Occ=0.000000D+00  E= 2.755338D+00

 Vector   86  Occ=0.000000D+00  E= 2.814087D+00

 Vector   87  Occ=0.000000D+00  E= 2.861892D+00

 Vector   88  Occ=0.000000D+00  E= 2.898942D+00

 Vector   89  Occ=0.000000D+00  E= 2.930576D+00

 Vector   90  Occ=0.000000D+00  E= 1.172582D+01

 Vector   91  Occ=0.000000D+00  E= 1.185584D+01

 Vector   92  Occ=0.000000D+00  E= 1.185754D+01

 Vector   93  Occ=0.000000D+00  E= 1.195589D+01

 Vector   94  Occ=0.000000D+00  E= 1.208787D+01

 Vector   95  Occ=0.000000D+00  E= 6.268031D+01

 Vector   96  Occ=0.000000D+00  E= 6.280317D+01

 Vector   97  Occ=0.000000D+00  E= 6.280904D+01

 Vector   98  Occ=0.000000D+00  E= 6.289617D+01

 Vector   99  Occ=0.000000D+00  E= 6.303769D+01

     Multipole analysis of the density
     ---------------------------------

     L   x y z        total         alpha         beta         nuclear
     -   - - -        -----         -----         ----         -------
     0   0 0 0     -1.000000    -20.000000    -19.000000     38.000000

     1   1 0 0     -0.329372     -0.304428     -0.024944     -0.000000
     1   0 1 0     -0.435668     -0.584259      0.148591     -0.000000
     1   0 0 1      0.002166     -0.063207      0.065372      0.000000

     2   2 0 0    -39.859251   -127.199406   -113.873503    201.213659
     2   1 1 0     -3.978677    -44.346301    -41.137047     81.504672
     2   1 0 1      2.172768     25.591842     22.218442    -45.637516
     2   0 2 0    -30.929075    -79.636215    -75.255226    123.962366
     2   0 1 1      0.737590     14.536990     13.919169    -27.718569

 Total times  cpu:        7.1s     wall:        7.6s
