 Output coordinates in angstroms (scale by  1.889725989 to convert to a.u.)

  No.       Tag          Charge          X              Y              Z
 ---- ---------------- ---------- -------------- -------------- --------------
    1 C                    6.0000    -0.16967935     0.94344181     0.03403180
    2 C                    6.0000     1.16164306     1.05970556    -0.09819161
    3 H                    1.0000    -0.83958308     1.79849712     0.11701081
    4 O                    8.0000    -0.92465444    -0.22484646     0.08919552
    5 H                    1.0000     1.60669851     2.05252133    -0.12509637
    6 H                    1.0000     1.83895105     0.21163313    -0.18190575
    7 C                    6.0000    -0.18462767    -1.48112696    -0.00789798
    8 H                    1.0000    -0.93870849    -2.27058730     0.05443876
    9 H                    1.0000     0.53346294    -1.57853432     0.82197953
   10 H                    1.0000     0.35239834    -1.54688081    -0.96764432

         Total DFT energy =     -192.795436638236

                    DFT Final Alpha Molecular Orbital Analysis
                    ------------------------------------------

 Vector    1  Occ=1.000000D+00  E=-1.858860D+01

 Vector   77  Occ=0.000000D+00  E= 6.294649D+01

 Vector   78  Occ=0.000000D+00  E= 1.180441D+02

 Vector    1  Occ=1.000000D+00  E=-1.858752D+01

 Vector    2  Occ=1.000000D+00  E=-9.736667D+00

 Vector    3  Occ=1.000000D+00  E=-9.727164D+00

 Vector    4  Occ=1.000000D+00  E=-9.665896D+00

 Vector    5  Occ=1.000000D+00  E=-7.663338D-01

 Vector    6  Occ=1.000000D+00  E=-4.868217D-01

 Vector    7  Occ=1.000000D+00  E=-4.383863D-01

 Vector    8  Occ=1.000000D+00  E=-3.147144D-01

 Vector    9  Occ=1.000000D+00  E=-2.568130D-01

 Vector   10  Occ=1.000000D+00  E=-2.245576D-01

 Vector   11  Occ=1.000000D+00  E=-2.105978D-01

 Vector   12  Occ=1.000000D+00  E=-1.736373D-01

 Vector   13  Occ=1.000000D+00  E=-1.392363D-01

 Vector   14  Occ=1.000000D+00  E=-9.545127D-02

 Vector   15  Occ=1.000000D+00  E=-9.088220D-02

 Vector   16  Occ=1.000000D+00  E= 5.851693D-03

 Vector   17  Occ=0.000000D+00  E= 1.960524D-01

 Vector   18  Occ=0.000000D+00  E= 1.990135D-01

 Vector   19  Occ=0.000000D+00  E= 2.101787D-01

 Vector   20  Occ=0.000000D+00  E= 2.304250D-01

 Vector   21  Occ=0.000000D+00  E= 2.353845D-01

 Vector   22  Occ=0.000000D+00  E= 2.592968D-01

 Vector   23  Occ=0.000000D+00  E= 2.733362D-01

 Vector   24  Occ=0.000000D+00  E= 2.866753D-01

 Vector   25  Occ=0.000000D+00  E= 3.331401D-01

 Vector   26  Occ=0.000000D+00  E= 3.620013D-01

 Vector   27  Occ=0.000000D+00  E= 3.669508D-01

 Vector   28  Occ=0.000000D+00  E= 3.939274D-01

 Vector   29  Occ=0.000000D+00  E= 4.277993D-01

 Vector   30  Occ=0.000000D+00  E= 4.362820D-01

 Vector   31  Occ=0.000000D+00  E= 4.558423D-01

 Vector   32  Occ=0.000000D+00  E= 4.678634D-01

 Vector   33  Occ=0.000000D+00  E= 4.997463D-01

 Vector   34  Occ=0.000000D+00  E= 5.581334D-01

 Vector   35  Occ=0.000000D+00  E= 5.732685D-01

 Vector   36  Occ=0.000000D+00  E= 5.979051D-01

 Vector   37  Occ=0.000000D+00  E= 6.011438D-01

 Vector   38  Occ=0.000000D+00  E= 6.246190D-01

 Vector   39  Occ=0.000000D+00  E= 6.471808D-01

 Vector   40  Occ=0.000000D+00  E= 6.601225D-01

 Vector   41  Occ=0.000000D+00  E= 6.684396D-01

 Vector   42  Occ=0.000000D+00  E= 7.001013D-01

 Vector   43  Occ=0.000000D+00  E= 7.283657D-01

 Vector   44  Occ=0.000000D+00  E= 7.717922D-01

 Vector   45  Occ=0.000000D+00  E= 7.953879D-01

 Vector   46  Occ=0.000000D+00  E= 8.452298D-01

 Vector   47  Occ=0.000000D+00  E= 8.913882D-01

 Vector   48  Occ=0.000000D+00  E= 1.358370D+00

 Vector   49  Occ=0.000000D+00  E= 1.565309D+00

 Vector   50  Occ=0.000000D+00  E= 1.566203D+00

 Vector   51  Occ=0.000000D+00  E= 1.589240D+00

 Vector   52  Occ=0.000000D+00  E= 1.609392D+00

 Vector   53  Occ=0.000000D+00  E= 1.643585D+00

 Vector   54  Occ=0.000000D+00  E= 1.667866D+00

 Vector   55  Occ=0.000000D+00  E= 1.670934D+00

 Vector   56  Occ=0.000000D+00  E= 1.823674D+00

 Vector   57  Occ=0.000000D+00  E= 1.926540D+00

 Vector   58  Occ=0.000000D+00  E= 2.278549D+00

 Vector   59  Occ=0.000000D+00  E= 2.322132D+00

 Vector   60  Occ=0.000000D+00  E= 2.425676D+00

 Vector   61  Occ=0.000000D+00  E= 2.451172D+00

 Vector   62  Occ=0.000000D+00  E= 2.491691D+00

 Vector   63  Occ=0.000000D+00  E= 2.577891D+00

 Vector   64  Occ=0.000000D+00  E= 2.603472D+00

 Vector   65  Occ=0.000000D+00  E= 2.761568D+00

 Vector   66  Occ=0.000000D+00  E= 2.762930D+00

 Vector   67  Occ=0.000000D+00  E= 2.836183D+00

 Vector   68  Occ=0.000000D+00  E= 2.946840D+00

 Vector   69  Occ=0.000000D+00  E= 3.033713D+00

 Vector   70  Occ=0.000000D+00  E= 4.786711D+00

 Vector   71  Occ=0.000000D+00  E= 1.161406D+01

 Vector   72  Occ=0.000000D+00  E= 1.180903D+01

 Vector   73  Occ=0.000000D+00  E= 1.200560D+01

 Vector   74  Occ=0.000000D+00  E= 2.210303D+01

 Vector   75  Occ=0.000000D+00  E= 6.256625D+01

 Vector   76  Occ=0.000000D+00  E= 6.275525D+01

 Vector   77  Occ=0.000000D+00  E= 6.294983D+01

 Vector   78  Occ=0.000000D+00  E= 1.180454D+02

     Multipole analysis of the density
     ---------------------------------

     L   x y z        total         alpha         beta         nuclear
     -   - - -        -----         -----         ----         -------
     0   0 0 0     -1.000000    -17.000000    -16.000000     32.000000

     1   1 0 0     -0.422834     -0.608221      0.185387      0.000000
     1   0 1 0      0.566838      0.788722     -0.221883      0.000000
     1   0 0 1      0.037287      0.076625     -0.039338      0.000000

     2   2 0 0    -28.799482    -59.454438    -52.449805     83.104761
     2   1 1 0     -2.079749    -24.141105    -23.115024     45.176379
     2   1 0 1     -0.456013      3.051965      3.482134     -6.990111
     2   0 2 0    -30.343226    -98.493019    -86.040271    154.190064
     2   0 1 1     -0.136948      0.704035      1.055449     -1.896432

 Total times  cpu:      127.8s     wall:      133.2s
