 Output coordinates in angstroms (scale by  1.889725989 to convert to a.u.)

  No.       Tag          Charge          X              Y              Z
 ---- ---------------- ---------- -------------- -------------- --------------
    1 C                    6.0000     0.09483265     1.49648796     0.01671272
    2 C                    6.0000     1.42635536     1.61839195    -0.11397685
    3 H                    1.0000    -0.57484646     2.35220625     0.09901637
    4 O                    8.0000    -0.65764650     0.32768037     0.07081099
    5 H                    1.0000     1.86659530     2.61354565    -0.13987019
    6 H                    1.0000     2.10800350     0.77393195    -0.19732769
    7 C                    6.0000     0.08098051    -0.94205474    -0.02522139
    8 C                    6.0000    -0.93680533    -2.06444295     0.05832697
    9 H                    1.0000     0.81283634    -0.99387307     0.79959399
   10 H                    1.0000     0.63347192    -0.96356494    -0.98068901
   11 H                    1.0000    -1.48402938    -2.02281641     1.00959054
   12 H                    1.0000    -0.43013608    -3.03847230    -0.00937091
   13 H                    1.0000    -1.66290232    -1.99269342    -0.76247962

         Total DFT energy =     -232.068086346892

                    DFT Final Alpha Molecular Orbital Analysis
                    ------------------------------------------

 Vector    1  Occ=1.000000D+00  E=-1.859714D+01

 Vector   20  Occ=1.000000D+00  E=-4.929023D-03

 Vector   21  Occ=0.000000D+00  E= 1.812513D-01

 Vector   22  Occ=0.000000D+00  E= 1.882625D-01

 Vector   23  Occ=0.000000D+00  E= 1.981685D-01

 Vector   24  Occ=0.000000D+00  E= 2.059687D-01

 Vector   25  Occ=0.000000D+00  E= 2.312674D-01

 Vector   26  Occ=0.000000D+00  E= 2.357277D-01

 Vector   27  Occ=0.000000D+00  E= 2.379155D-01

 Vector   28  Occ=0.000000D+00  E= 2.461806D-01

 Vector   29  Occ=0.000000D+00  E= 2.675595D-01

 Vector   30  Occ=0.000000D+00  E= 2.804757D-01

 Vector   31  Occ=0.000000D+00  E= 3.053992D-01

 Vector   32  Occ=0.000000D+00  E= 3.202780D-01

 Vector   33  Occ=0.000000D+00  E= 3.388916D-01

 Vector   34  Occ=0.000000D+00  E= 3.645501D-01

 Vector   35  Occ=0.000000D+00  E= 3.866267D-01

 Vector   36  Occ=0.000000D+00  E= 4.089506D-01

 Vector   37  Occ=0.000000D+00  E= 4.195700D-01

 Vector   38  Occ=0.000000D+00  E= 4.319145D-01

 Vector   39  Occ=0.000000D+00  E= 4.374236D-01

 Vector   40  Occ=0.000000D+00  E= 4.525944D-01

 Vector   41  Occ=0.000000D+00  E= 4.778946D-01

 Vector   42  Occ=0.000000D+00  E= 4.788933D-01

 Vector   43  Occ=0.000000D+00  E= 5.545306D-01

 Vector   44  Occ=0.000000D+00  E= 5.627554D-01

 Vector   45  Occ=0.000000D+00  E= 5.699028D-01

 Vector   46  Occ=0.000000D+00  E= 5.765568D-01

 Vector   47  Occ=0.000000D+00  E= 5.952334D-01

 Vector   48  Occ=0.000000D+00  E= 6.084796D-01

 Vector   49  Occ=0.000000D+00  E= 6.207654D-01

 Vector   50  Occ=0.000000D+00  E= 6.271046D-01

 Vector   51  Occ=0.000000D+00  E= 6.422973D-01

 Vector   52  Occ=0.000000D+00  E= 6.699942D-01

 Vector   53  Occ=0.000000D+00  E= 6.834930D-01

 Vector   54  Occ=0.000000D+00  E= 7.211519D-01

 Vector   55  Occ=0.000000D+00  E= 7.638977D-01

 Vector   56  Occ=0.000000D+00  E= 7.663536D-01

 Vector   57  Occ=0.000000D+00  E= 7.908284D-01

 Vector   58  Occ=0.000000D+00  E= 8.628504D-01

 Vector   59  Occ=0.000000D+00  E= 8.800837D-01

 Vector   60  Occ=0.000000D+00  E= 9.417449D-01

 Vector   61  Occ=0.000000D+00  E= 1.372642D+00

 Vector   62  Occ=0.000000D+00  E= 1.512868D+00

 Vector   63  Occ=0.000000D+00  E= 1.558409D+00

 Vector   64  Occ=0.000000D+00  E= 1.558824D+00

 Vector   65  Occ=0.000000D+00  E= 1.589293D+00

 Vector   66  Occ=0.000000D+00  E= 1.634465D+00

 Vector   67  Occ=0.000000D+00  E= 1.638143D+00

 Vector   68  Occ=0.000000D+00  E= 1.678508D+00

 Vector   69  Occ=0.000000D+00  E= 1.701229D+00

 Vector   70  Occ=0.000000D+00  E= 1.720654D+00

 Vector   71  Occ=0.000000D+00  E= 1.735111D+00

 Vector   72  Occ=0.000000D+00  E= 1.871031D+00

 Vector   73  Occ=0.000000D+00  E= 1.927384D+00

 Vector   74  Occ=0.000000D+00  E= 2.269194D+00

 Vector   75  Occ=0.000000D+00  E= 2.321734D+00

 Vector   76  Occ=0.000000D+00  E= 2.406391D+00

 Vector   77  Occ=0.000000D+00  E= 2.434939D+00

 Vector   78  Occ=0.000000D+00  E= 2.451591D+00

 Vector   79  Occ=0.000000D+00  E= 2.468204D+00

 Vector   80  Occ=0.000000D+00  E= 2.469919D+00

 Vector   81  Occ=0.000000D+00  E= 2.564662D+00

 Vector   82  Occ=0.000000D+00  E= 2.588436D+00

 Vector   83  Occ=0.000000D+00  E= 2.762788D+00

 Vector   84  Occ=0.000000D+00  E= 2.797002D+00

 Vector   85  Occ=0.000000D+00  E= 2.873105D+00

 Vector   86  Occ=0.000000D+00  E= 2.934620D+00

 Vector   87  Occ=0.000000D+00  E= 2.944873D+00

 Vector   88  Occ=0.000000D+00  E= 3.088212D+00

 Vector   89  Occ=0.000000D+00  E= 4.798579D+00

 Vector   90  Occ=0.000000D+00  E= 1.161850D+01

 Vector   91  Occ=0.000000D+00  E= 1.181857D+01

 Vector   92  Occ=0.000000D+00  E= 1.188551D+01

 Vector   93  Occ=0.000000D+00  E= 1.199770D+01

 Vector   94  Occ=0.000000D+00  E= 2.211225D+01

 Vector   95  Occ=0.000000D+00  E= 6.256981D+01

 Vector   96  Occ=0.000000D+00  E= 6.275914D+01

 Vector   97  Occ=0.000000D+00  E= 6.283819D+01

 Vector   98  Occ=0.000000D+00  E= 6.294101D+01

 Vector   99  Occ=0.000000D+00  E= 1.180552D+02

     Multipole analysis of the density
     ---------------------------------

     L   x y z        total         alpha         beta         nuclear
     -   - - -        -----         -----         ----         -------
     0   0 0 0     -1.000000    -21.000000    -20.000000     40.000000

     1   1 0 0     -0.095439     -0.202608      0.107169      0.000000
     1   0 1 0      0.416082      0.627907     -0.211825      0.000000
     1   0 0 1      0.027231      0.058980     -0.031749      0.000000

     2   2 0 0    -34.012009    -83.877719    -76.902645    126.768355
     2   1 1 0     -4.638803    -67.357094    -64.004826    126.723116
     2   1 0 1     -0.017896      4.653699      4.649378     -9.320973
     2   0 2 0    -40.505017   -194.726579   -178.176650    332.398211
     2   0 1 1     -0.018900      3.438973      3.614418     -7.072291

 Total times  cpu:      119.2s     wall:      123.4s
